
                                 *****************
                                 * O   R   C   A *
                                 *****************

                                            #,                                       
                                            ###                                      
                                            ####                                     
                                            #####                                    
                                            ######                                   
                                           ########,                                 
                                     ,,################,,,,,                         
                               ,,#################################,,                 
                          ,,##########################################,,             
                       ,#########################################, ''#####,          
                    ,#############################################,,   '####,        
                  ,##################################################,,,,####,       
                ,###########''''           ''''###############################       
              ,#####''   ,,,,##########,,,,          '''####'''          '####       
            ,##' ,,,,###########################,,,                        '##       
           ' ,,###''''                  '''############,,,                           
         ,,##''                                '''############,,,,        ,,,,,,###''
      ,#''                                            '''#######################'''  
     '                                                          ''''####''''         
             ,#######,   #######,   ,#######,      ##                                
            ,#'     '#,  ##    ##  ,#'     '#,    #''#        ,####,    ,#,          
            ##       ##  ##   ,#'  ##            #'  '#       #'       ,# #          
            ##       ##  #######   ##           ,######,      #####,      #          
            '#,     ,#'  ##    ##  '#,     ,#' ,#      #,     #,   #      #          
             '#######'   ##     ##  '#######'  #'      '#     '####' #    #          



                #########################################################
                #                        -***-                          #
                #          Department of theory and spectroscopy        #
                #                                                       #
                #                      Frank Neese                      #
                #                                                       #
                #     Directorship, Architecture, Infrastructure        #
                #                    SHARK, DRIVERS                     #
                #        Core code/Algorithms in most modules           #
                #                                                       #
                #        Max Planck Institute fuer Kohlenforschung      #
                #                Kaiser Wilhelm Platz 1                 #
                #                 D-45470 Muelheim/Ruhr                 #
                #                      Germany                          #
                #                                                       #
                #                  All rights reserved                  #
                #                        -***-                          #
                #########################################################


                         Program Version 6.1.0  -  RELEASE   -
                                (GIT: $679e74b$)
                          ($2025-06-10 18:02:51 +0200$)


 With contributions from (in alphabetic order):
[Max-Planck-Institut fuer Kohlenforschung]                               
  Daniel Aravena         : Magnetic Suceptibility                        
  Michael Atanasov       : Ab Initio Ligand Field Theory (pilot matlab implementation)
  Alexander A. Auer      : GIAO ZORA, VPT2 properties, NMR spectrum      
  Ute Becker             : All parallelization in ORCA, NUMFREQ, NUMCALC 
  Giovanni Bistoni       : ED, misc. LED, open-shell LED, HFLD           
  Dmytro Bykov           : pre 5.0 version of the SCF Hessian            
  Marcos Casanova-Páez   : Triplet and SCS-CIS(D). UHF-(DLPNO)-IP/EA/STEOM-CCSD. UHF-CVS-IP/STEOM-CCSD   
  Vijay G. Chilkuri      : MRCI spin determinant printing, contributions to CSF-ICE 
  Pauline Colinet        : FMM embedding                                 
  Dipayan Datta          : RHF DLPNO-CCSD density                        
  Achintya Kumar Dutta   : EOM-CC, STEOM-CC                              
  Nicolas Foglia         : Exact transition moments, OPA infrastructure, MCD improvements    
  Dmitry Ganyushin       : Spin-Orbit,Spin-Spin,Magnetic field MRCI      
  Miquel Garcia-Rates    : C-PCM and meta-GGA Hessian, CCSD/C-PCM, Gaussian charge scheme 
  Tiago L. C. Gouveia    : GS-ROHF, GS-ROCIS                             
  Yang Guo               : DLPNO-NEVPT2, F12-NEVPT2, CIM, IAO-localization        
  Andreas Hansen         : Spin unrestricted coupled pair/coupled cluster methods 
  Ingolf Harden          : AUTO-CI MPn and infrastructure                
  Benjamin Helmich-Paris : MC-RPA, TRAH-(SCF,CASSCF), AVAS, COSX integrals, SCF dyn. polar., MC-PDFT, srDFT 
  Lee Huntington         : MR-EOM, pCC                                   
  Robert Izsak           : Overlap fitted RIJCOSX, COSX-SCS-MP3, EOM     
  Riya Kayal             : Wick's Theorem for AUTO-CI, AUTO-CI UHF-CCSDT 
  Emily Kempfer          : AUTO-CI RHF CISDT and CCSDT, approximate NEVPT4
  Christian Kollmar      : KDIIS, OOCD, Brueckner-CCSD(T), CCSD density, CASPT2, CASPT2-K, improved NEVPT2 
  Axel Koslowski         : Symmetry handling                             
  Simone Kossmann        : meta-GGA functionals, TD-DFT gradient, OOMP2, (MP2 Hessian; deprecated post 5.0) 
  Lucas Lang             : DCDCAS, Hyperfine gauge corrections, ICE-SOC+SSC
  Marvin Lechner         : AUTO-CI (C++ implementation), FIC-MRCC        
  Spencer Leger          : CASSCF response                               
  Dagmar Lenk            : GEPOL surface, SMD, ORCA-2-JSON               
  Dimitrios Liakos       : Extrapolation schemes; Compound Job, Property file
  Dimitrios Manganas     : Further ROCIS development; embedding schemes. LFT, Crystal Embedding 
  Dimitrios Pantazis     : SARC Basis sets                               
  Anastasios Papadopoulos: AUTO-CI, single reference methods and gradients 
  Taras Petrenko         : pre 6.0 DFT Hessian and TD-DFT gradient,  ECA, NRVS 
  Petra Pikulova         : Analytic Raman intensities                    
  Peter Pinski           : DLPNO-MP2, DLPNO-MP2 Gradient                 
  Shashank Vittal Rao    : ES-AILFT, MagRelax                            
  Christoph Reimann      : Effective Core Potentials                     
  Marius Retegan         : Local ZFS, SOC                                
  Christoph Riplinger    : Optimizer, TS searches, QM/MM, DLPNO-CCSD(T), (RO)-DLPNO pert. Triples 
  Michael Roemelt        : Original ROCIS implementation, recursive CI coupling coefficients
  Masaaki Saitow         : Open-shell DLPNO-CCSD energy and density      
  Barbara Sandhoefer     : DKH picture change effects                    
  Yorick L. A. Schmerwitz: GMF and freeze-and-release deltaSCF, NEB S-IDPP initial path                    
  Kantharuban Sivalingam : CASSCF convergence/infrastructure, NEVPT2, NEVPT3, NEVPT4(SD), FIC-MRCI and CEPA variants
  Bernardo de Souza      : ESD, SOC TD-DFT                               
  Georgi L. Stoychev     : AutoAux, RI-MP2 NMR, DLPNO-MP2 response, X2C  
  Van Anh Tran           : RI-MP2 g-tensors                              
  Willem Van den Heuvel  : Paramagnetic NMR                              
  Zikuan Wang            : NOTCH, Electric field optimization            
  Frank Wennmohs         : Technical directorship and infrastructure     
  Hang Xu                : AUTO-CI-Response properties                   
                                                                         
[FACCTs GmbH]                                                            
  Markus Bursch, Nicolas Foglia, Miquel Garcia-Rates, Ingolf Harden, Hagen Neugebauer, Anastasios Papadopoulos, 
  Christoph Riplinger, Bernardo de Souza, Georgi L. Stoychev                                                    
                                                                 
  APM, various basis sets, CI-OPT, improved COSX, DLPNO-Multilevel,           
  DOCKER, DRACO, updates on ESD, Fragmentator, GOAT, IRC, LR-CPCM, L-BFGS, MBIS, meta-GGA TD-DFT gradient, ML-optimized integration grids, 
  MM, NACMEs, nearIR, NEB, NEB-TS, NL-DFT gradient (VV10), 2- and 3-layer-ONIOM, interface openCOSMO-RS, QMMM,   
  Crystal-QMMM, RESP, rigid body optimization, SF, symmetry and pop. for TD-DFT, various functionals, SOLVATOR                                   
                                                                         
[Other institutions]                                                     
  V. Asgeirsson          : NEB                                           
  Christoph Bannwarth    : sTDA-DFT, sTD-DFT, PBEh-3c, B97-3c, D3        
  Giovanni Bistoni       : ETS/NOCV, ADLD/ADEX, COVALED                  
  Martin Brehm           : Molecular dynamics                            
  Ronald Cardenas        : ETS/NOCV                                      
  Martina Colucci        : COVALED                                       
  Sebastian Ehlert       : rSCAN, r2SCAN, r2SCAN-3c, D4, dhf basis sets  
  Marvin Friede          : D4 for Fr, Ra, Ac-Lr                          
  Lars Goerigk           : TD-DFT with DH, B97 family of functionals     
  Stefan Grimme          : VdW corrections, initial TS optimization, DFT functionals, gCP, sTDA/sTD-DF 
  Waldemar Hujo          : DFT-NL                                        
  H. Jonsson             : NEB                                           
  Holger Kruse           : gCP                                           
  Marcel Mueller         : wB97X-3c, vDZP basis set                      
  Hagen Neugebauer       : wr2SCAN, Native XTB                           
  Gianluca Regni         : ADLD/ADEX                                     
  Tobias Risthaus        : pre 6.0 range-separated hybrid DFT and stability analysis
  Lukas Wittmann         : regularized MP2, r2SCAN double-hybrids, wr2SCAN        
                                                                         
We gratefully acknowledge several colleagues who have allowed us to      
interface, adapt or use parts of their codes:                            
  Ed Valeev, F. Pavosevic, A. Kumar             : LibInt (2-el integral package), F12 methods 
  Garnet Chan, S. Sharma, J. Yang, R. Olivares  : DMRG                   
  Ulf Ekstrom                                   : XCFun DFT Library      
  Mihaly Kallay                                 : mrcc  (arbitrary order and MRCC methods)
  Frank Weinhold                                : gennbo (NPA and NBO analysis)           
  Simon Mueller                                 : openCOSMO-RS                            
  Christopher J. Cramer and Donald G. Truhlar   : smd solvation model                     
  S Lehtola, MJT Oliveira, MAL Marques          : LibXC Library                           
  Liviu Ungur et al                             : ANISO software                          


 Your calculation uses the libint2 library for the computation of 2-el integrals
 For citations please refer to: http://libint.valeyev.net

 Your ORCA version has been built with support for libXC version: 7.0.0
 For citations please refer to: https://libxc.gitlab.io

 This ORCA versions uses:
   CBLAS   interface :  Fast vector & matrix operations
   LAPACKE interface :  Fast linear algebra routines
   SCALAPACK package :  Parallel linear algebra routines
   Shared memory     :  Shared parallel matrices
   BLAS/LAPACK       :  OpenBLAS 0.3.29  USE64BITINT DYNAMIC_ARCH NO_AFFINITY Zen SINGLE_THREADED
        Core in use  :  Zen
   Copyright (c) 2011-2014, The OpenBLAS Project


  ***********************************
  * Starting time: Sun Feb  8 08:58:04 2026
  * Host name:     node068.cluster
  * Process ID:    2119230
  * Working dir.:  /scratch/56927663
  ***********************************

NOTE: MaxCore=1500 MB was set to SCF,MP2,MDCI,CIPSI,MRCI,RASCI and CIS
      => If you want to overwrite this, your respective input block should be placed after the MaxCore statement
Warning: RI is on but no J-basis has been assigned. Assigning Def2/J (nothing to worry about!)
================================================================================

----- Orbital basis set information -----
Your calculation utilizes the basis: def2-SVP
   F. Weigend and R. Ahlrichs, Phys. Chem. Chem. Phys. 7, 3297 (2005).

----- AuxJ basis set information -----
Your calculation utilizes the auxiliary basis: def2/J
   H-Rn: F. Weigend, Phys. Chem. Chem. Phys. 8, 1057 (2006).
   Fr-Lr: K. Eichkorn, F. Weigend, O. Treutler, R. Ahlrichs; Theor. Chem. Acc. 97, 119 (1997).

================================================================================
                                        WARNINGS
                       Please study these warnings very carefully!
================================================================================


WARNING: Geometry Optimization
  ===> : Switching off AutoStart
         For restart on a previous wavefunction, please use MOREAD

================================================================================
                                       INPUT FILE
================================================================================
NAME = MeOH.inp
|  1> ! b3lyp opt freq
|  2> 
|  3> 
|  4>  %pal 
|  5>  nprocs 4 
|  6>  end 
|  7>  
|  8>  %maxcore 1500 
|  9>  
| 10>  * XYZ 0 1
| 11> C     -5.5672159694   -0.5369349892   -0.0139405749
| 12> O     -4.2415914172   -0.1098351325    0.1077627918
| 13> H     -6.2673835229    0.2532889895    0.3284492162
| 14> H     -5.7950623809   -0.8481845681   -1.0553463577
| 15> H     -5.7118823793   -1.4262866966    0.6334558968
| 16> H     -4.1036348063    0.6139892403   -0.5637421573
| 17> *
| 18> 
| 19>                          ****END OF INPUT****
================================================================================

                       *****************************
                       * Geometry Optimization Run *
                       *****************************

Geometry optimization settings:
Update method            Update   .... BFGS
Choice of coordinates    CoordSys .... (2022) Redundant Internals
Initial Hessian          InHess   .... Almloef's Model
Max. no of cycles        MaxIter  .... 50

Convergence Tolerances:
Energy Change            TolE     ....  5.0000e-06 Eh
Max. Gradient            TolMAXG  ....  3.0000e-04 Eh/bohr
RMS Gradient             TolRMSG  ....  1.0000e-04 Eh/bohr
Max. Displacement        TolMAXD  ....  4.0000e-03 bohr
RMS Displacement         TolRMSD  ....  2.0000e-03 bohr
Strict Convergence                .... False

------------------------------------------------------------------------------
                        ORCA OPTIMIZATION COORDINATE SETUP
------------------------------------------------------------------------------

The optimization will be done in redundant internal coordinates (2022)
Making redundant internal coordinates   ...  (2022 redundants) done
Evaluating the initial hessian          ...  (Almloef) done
Evaluating the coordinates              ...  done
Calculating the B-matrix                .... done
Calculating the G-matrix                .... done
The number of degrees of freedom        ....   15

    -----------------------------------------------------------------
                    Redundant Internal Coordinates


    -----------------------------------------------------------------
         Definition                    Initial Value    Approx d2E/dq
    -----------------------------------------------------------------
      1. B(O   1,C   0)                  1.3980         0.543317   
      2. B(H   2,C   0)                  1.1099         0.334691   
      3. B(H   3,C   0)                  1.1105         0.333919   
      4. B(H   4,C   0)                  1.1095         0.335202   
      5. B(H   5,O   1)                  0.9969         0.453988   
      6. A(O   1,C   0,H   3)          111.2104         0.338728   
      7. A(O   1,C   0,H   2)          110.7196         0.338859   
      8. A(O   1,C   0,H   4)          108.5251         0.338945   
      9. A(H   2,C   0,H   4)          107.9654         0.284331   
     10. A(H   3,C   0,H   4)          107.2035         0.284229   
     11. A(H   2,C   0,H   3)          111.0629         0.284161   
     12. A(C   0,O   1,H   5)          107.1207         0.353589   
     13. D(H   5,O   1,C   0,H   3)     55.3731         0.023498   
     14. D(H   5,O   1,C   0,H   4)    173.0597         0.023498   
     15. D(H   5,O   1,C   0,H   2)    -68.6109         0.023498   
    -----------------------------------------------------------------

Number of atoms                         .... 6
Number of degrees of freedom            .... 15


         *************************************************************
         *                GEOMETRY OPTIMIZATION CYCLE   1            *
         *************************************************************
---------------------------------
CARTESIAN COORDINATES (ANGSTROEM)
---------------------------------
  C     -5.567216   -0.536935   -0.013941
  O     -4.241591   -0.109835    0.107763
  H     -6.267384    0.253289    0.328449
  H     -5.795062   -0.848185   -1.055346
  H     -5.711882   -1.426287    0.633456
  H     -4.103635    0.613989   -0.563742

----------------------------
CARTESIAN COORDINATES (A.U.)
----------------------------
  NO LB      ZA    FRAG     MASS         X           Y           Z
   0 C     6.0000    0    12.011  -10.520514   -1.014660   -0.026344
   1 O     8.0000    0    15.999   -8.015446   -0.207558    0.203642
   2 H     1.0000    0     1.008  -11.843638    0.478647    0.620679
   3 H     1.0000    0     1.008  -10.951081   -1.602837   -1.994316
   4 H     1.0000    0     1.008  -10.793893   -2.695291    1.197058
   5 H     1.0000    0     1.008   -7.754746    1.160272   -1.065318

--------------------------------
INTERNAL COORDINATES (ANGSTROEM)
--------------------------------
 C      0   0   0     0.000000000000     0.00000000     0.00000000
 O      1   0   0     1.398036641313     0.00000000     0.00000000
 H      1   2   0     1.109918604464   110.71955655     0.00000000
 H      1   2   3     1.110547744155   111.21039602   123.98391904
 H      1   2   3     1.109503051451   108.52514569   241.67055719
 H      2   1   3     0.996931615416   107.12072120   291.38914199

---------------------------
INTERNAL COORDINATES (A.U.)
---------------------------
 C      0   0   0     0.000000000000     0.00000000     0.00000000
 O      1   0   0     2.641906377269     0.00000000     0.00000000
 H      1   2   0     2.097442193382   110.71955655     0.00000000
 H      1   2   3     2.098631095097   111.21039602   123.98391904
 H      1   2   3     2.096656911992   108.52514569   241.67055719
 H      2   1   3     1.883927727384   107.12072120   291.38914199

---------------------
BASIS SET INFORMATION
---------------------
There are 3 groups of distinct atoms

 Group   1 Type C   : 7s4p1d contracted to 3s2p1d pattern {511/31/1}
 Group   2 Type O   : 7s4p1d contracted to 3s2p1d pattern {511/31/1}
 Group   3 Type H   : 4s1p contracted to 2s1p pattern {31/1}

Atom   0C    basis set group =>   1
Atom   1O    basis set group =>   2
Atom   2H    basis set group =>   3
Atom   3H    basis set group =>   3
Atom   4H    basis set group =>   3
Atom   5H    basis set group =>   3
---------------------------------
AUXILIARY/J BASIS SET INFORMATION
---------------------------------
There are 3 groups of distinct atoms

 Group   1 Type C   : 12s5p4d2f1g contracted to 6s4p3d1f1g pattern {711111/2111/211/2/1}
 Group   2 Type O   : 12s5p4d2f1g contracted to 6s4p3d1f1g pattern {711111/2111/211/2/1}
 Group   3 Type H   : 5s2p1d contracted to 3s1p1d pattern {311/2/1}

Atom   0C    basis set group =>   1
Atom   1O    basis set group =>   2
Atom   2H    basis set group =>   3
Atom   3H    basis set group =>   3
Atom   4H    basis set group =>   3
Atom   5H    basis set group =>   3
[1770537485.331646] [node068:2119235:0]     ucp_context.c:1234 UCX  WARN  transport 'ib' is not available, please use one or more of: mm, posix, self, shm, sm, sysv, tcp
[1770537485.345617] [node068:2119236:0]     ucp_context.c:1234 UCX  WARN  transport 'ib' is not available, please use one or more of: mm, posix, self, shm, sm, sysv, tcp
[1770537485.371021] [node068:2119238:0]     ucp_context.c:1234 UCX  WARN  transport 'ib' is not available, please use one or more of: mm, posix, self, shm, sm, sysv, tcp
[1770537485.398074] [node068:2119242:0]     ucp_context.c:1234 UCX  WARN  transport 'ib' is not available, please use one or more of: mm, posix, self, shm, sm, sysv, tcp


           ************************************************************
           *        Program running with 4 parallel MPI-processes     *
           *              working on a common directory               *
           ************************************************************
------------------------------------------------------------------------------
                             ORCA STARTUP CALCULATIONS
                           -- RI-GTO INTEGRALS CHOSEN --
------------------------------------------------------------------------------
------------------------------------------------------------------------------
                   ___                                                        
                  /   \      - P O W E R E D   B Y -                         
                 /     \                                                     
                 |  |  |   _    _      __       _____    __    __             
                 |  |  |  | |  | |    /  \     |  _  \  |  |  /  |          
                  \  \/   | |  | |   /    \    | | | |  |  | /  /          
                 / \  \   | |__| |  /  /\  \   | |_| |  |  |/  /          
                |  |  |   |  __  | /  /__\  \  |    /   |      \           
                |  |  |   | |  | | |   __   |  |    \   |  |\   \          
                \     /   | |  | | |  |  |  |  | |\  \  |  | \   \       
                 \___/    |_|  |_| |__|  |__|  |_| \__\ |__|  \__/        
                                                                              
                      - O R C A' S   B I G   F R I E N D -                    
                                      &                                       
                       - I N T E G R A L  F E E D E R -                       
                                                                              
 v1 FN, 2020, v2 2021, v3 2022-2024                                           
------------------------------------------------------------------------------


----------------------
SHARK INTEGRAL PACKAGE
----------------------

Number of atoms                             ...      6
Number of basis functions                   ...     48
Number of shells                            ...     24
Maximum angular momentum                    ...      2
Integral batch strategy                     ... SHARK/LIBINT Hybrid
RI-J (if used) integral strategy            ... SPLIT-RIJ (Revised 2003 algorithm where possible)
Printlevel                                  ...      1
Contraction scheme used                     ... SEGMENTED contraction
Prescreening option                         ... SCHWARTZ
   Thresh                                   ... 2.500e-11
   Tcut                                     ... 2.500e-12
   Tpresel                                  ... 2.500e-12 
Coulomb Range Separation                    ... NOT USED
Exchange Range Separation                   ... NOT USED
Multipole approximations                    ... NOT USED
Finite Nucleus Model                        ... NOT USED
CABS basis                                  ... NOT available
Auxiliary Coulomb fitting basis             ... AVAILABLE
   # of basis functions in Aux-J            ...    142
   # of shells in Aux-J                     ...     50
   Maximum angular momentum in Aux-J        ...      4
Auxiliary J/K fitting basis                 ... NOT available
Auxiliary Correlation fitting basis         ... NOT available
Auxiliary 'external' fitting basis          ... NOT available

Checking pre-screening integrals            ... done (  0.0 sec) Dimension = 24
   => SHARK Basis and OBASIS are compatible. Storing Pre-screening
Shell pair information
Shell pair cut-off parameter TPreSel        ...   2.5e-12
Total number of shell pairs                 ...       300
Shell pairs after pre-screening             ...       300
Total number of primitive shell pairs       ...      1028
Primitive shell pairs kept                  ...       939
          la=0 lb=0:    105 shell pairs
          la=1 lb=0:    112 shell pairs
          la=1 lb=1:     36 shell pairs
          la=2 lb=0:     28 shell pairs
          la=2 lb=1:     16 shell pairs
          la=2 lb=2:      3 shell pairs

Checking whether 4 symmetric matrices of dimension 48 fit in memory
:Max Core in MB      =   1500.00
 MB in use           =      3.57
 MB left             =   1496.43
 MB needed           =      0.04
 Data fit in memory  = YES
Calculating RI/J V-Matrix + Cholesky decomp.... done (  0.0 sec)
Calculating Nuclear repulsion               ... done (  0.0 sec) ENN=     40.308483838869 Eh

Diagonalization of the overlap matrix:
Smallest eigenvalue                        ... 1.171e-02
Time for diagonalization                   ...    0.000 sec
Threshold for overlap eigenvalues          ... 1.000e-07
Number of eigenvalues below threshold      ... 0
Time for construction of square roots      ...    0.000 sec
Total time needed                          ...    0.001 sec

-------------------
DFT GRID GENERATION
-------------------

General Integration Accuracy     IntAcc      ... 4.388
Radial Grid Type                 RadialGrid  ... OptM3 with GC (2021)
Angular Grid (max. ang.)         AngularGrid ... 4 (Lebedev-302)
Angular grid pruning method      GridPruning ... 4 (adaptive)
Weight generation scheme         WeightScheme... mBecke (2022)
Basis function cutoff            BFCut       ... 1.0000e-11
Integration weight cutoff        WCut        ... 1.0000e-14
Partially contracted basis set               ... off
Rotationally invariant grid construction     ... off
Angular grids for H and He will be reduced by one unit

Total number of grid points                  ...    25333
Total number of batches                      ...      398
Average number of points per batch           ...       63
Average number of grid points per atom       ...     4222

--------------------
COSX GRID GENERATION
--------------------

GRIDX 1
-------
General Integration Accuracy     IntAcc      ... 3.816
Radial Grid Type                 RadialGrid  ... OptM3 with GC (2021)
Angular Grid (max. ang.)         AngularGrid ... 1 (Lebedev-50)
Angular grid pruning method      GridPruning ... 4 (adaptive)
Weight generation scheme         WeightScheme... mBecke (2022)
Basis function cutoff            BFCut       ... 1.0000e-11
Integration weight cutoff        WCut        ... 1.0000e-14
Partially contracted basis set               ... on
Rotationally invariant grid construction     ... off
Angular grids for H and He will be reduced by one unit

Total number of grid points                  ...     3292
Total number of batches                      ...       30
Average number of points per batch           ...      109
Average number of grid points per atom       ...      549
UseSFitting                                  ... on

GRIDX 2
-------
General Integration Accuracy     IntAcc      ... 4.020
Radial Grid Type                 RadialGrid  ... OptM3 with GC (2021)
Angular Grid (max. ang.)         AngularGrid ... 2 (Lebedev-110)
Angular grid pruning method      GridPruning ... 4 (adaptive)
Weight generation scheme         WeightScheme... mBecke (2022)
Basis function cutoff            BFCut       ... 1.0000e-11
Integration weight cutoff        WCut        ... 1.0000e-14
Partially contracted basis set               ... on
Rotationally invariant grid construction     ... off
Angular grids for H and He will be reduced by one unit

Total number of grid points                  ...     6934
Total number of batches                      ...       57
Average number of points per batch           ...      121
Average number of grid points per atom       ...     1156
UseSFitting                                  ... on

GRIDX 3
-------
General Integration Accuracy     IntAcc      ... 4.338
Radial Grid Type                 RadialGrid  ... OptM3 with GC (2021)
Angular Grid (max. ang.)         AngularGrid ... 3 (Lebedev-194)
Angular grid pruning method      GridPruning ... 4 (adaptive)
Weight generation scheme         WeightScheme... mBecke (2022)
Basis function cutoff            BFCut       ... 1.0000e-11
Integration weight cutoff        WCut        ... 1.0000e-14
Partially contracted basis set               ... on
Rotationally invariant grid construction     ... off
Angular grids for H and He will be reduced by one unit

Total number of grid points                  ...    15221
Total number of batches                      ...      122
Average number of points per batch           ...      124
Average number of grid points per atom       ...     2537
UseSFitting                                  ... on
Grids setup in   0.1 sec
Initializing property integral containers    ... done (  0.0 sec)

SHARK setup successfully completed in   0.2 seconds

Maximum memory used throughout the entire STARTUP-calculation: 9.4 MB
[1770537486.970770] [node068:2119255:0]     ucp_context.c:1234 UCX  WARN  transport 'ib' is not available, please use one or more of: mm, posix, self, shm, sm, sysv, tcp
[1770537486.982834] [node068:2119256:0]     ucp_context.c:1234 UCX  WARN  transport 'ib' is not available, please use one or more of: mm, posix, self, shm, sm, sysv, tcp
[1770537487.007049] [node068:2119258:0]     ucp_context.c:1234 UCX  WARN  transport 'ib' is not available, please use one or more of: mm, posix, self, shm, sm, sysv, tcp
[1770537487.034808] [node068:2119262:0]     ucp_context.c:1234 UCX  WARN  transport 'ib' is not available, please use one or more of: mm, posix, self, shm, sm, sysv, tcp


           ************************************************************
           *        Program running with 4 parallel MPI-processes     *
           *              working on a common directory               *
           ************************************************************
-------------------------------------------------------------------------------
                                 ORCA GUESS
                   Start orbitals & Density for SCF / CASSCF
-------------------------------------------------------------------------------

------------
SCF SETTINGS
------------
Hamiltonian:
 Density Functional     Method          .... DFT(GTOs)
 Exchange Functional    Exchange        .... B88
   X-Alpha parameter    XAlpha          ....  0.666667
   Becke's b parameter  XBeta           ....  0.004200
 Correlation Functional Correlation     .... LYP
 LDA part of GGA corr.  LDAOpt          .... VWN-5
 Gradients option       PostSCFGGA      .... off
 Hybrid DFT is turned on
   Fraction HF Exchange ScalHFX         ....  0.200000
   Scaling of DF-GGA-X  ScalDFX         ....  0.720000
   Scaling of DF-GGA-C  ScalDFC         ....  0.810000
   Scaling of DF-LDA-C  ScalLDAC        ....  1.000000
   Perturbative correction              ....  0.000000
   NL short-range parameter             ....  4.800000
 RI-approximation to the Coulomb term is turned on
   Number of AuxJ basis functions       .... 142
   RIJ-COSX (HFX calculated with COS-X)).... on


General Settings:
 Integral files         IntName         .... MeOH
 Hartree-Fock type      HFTyp           .... RHF
 Total Charge           Charge          ....    0
 Multiplicity           Mult            ....    1
 Number of Electrons    NEL             ....   18
 Basis Dimension        Dim             ....   48
 Nuclear Repulsion      ENuc            ....     40.3084838389 Eh

Convergence Acceleration:
 AO-DIIS                CNVDIIS         .... on
   Start iteration      DIISMaxIt       ....    12
   Startup error        DIISStart       ....  0.200000
   # of expansion vecs  DIISMaxEq       ....     5
   Bias factor          DIISBfac        ....   1.050
   Max. coefficient     DIISMaxC        ....  10.000
 MO-DIIS                CNVKDIIS        .... off
 Trust-Rad. Augm. Hess. CNVTRAH         .... auto
   Auto Start mean grad. ratio tolernc. ....  1.125000
   Auto Start start iteration           ....    50
   Auto Start num. interpolation iter.  ....    10
   Max. Number of Micro iterations      ....    24
   Max. Number of Macro iterations      .... Maxiter - #DIIS iter
   Number of Davidson start vectors     ....     2
   Converg. threshold    (grad. norm)   ....   1.000e-05
   Grad. Scal. Fac. for Micro threshold ....   0.100
   Minimum threshold for Micro iter.    ....   1.000e-02
   NR start threshold (gradient norm)   ....   1.000e-04
   Initial trust radius                 ....   0.400
   Minimum AH scaling param. (alpha)    ....   1.000
   Maximum AH scaling param. (alpha)    .... 1000.000
   Quad. conv. algorithm                .... NR
   White noise on init. David. guess    .... on
   Maximum white noise                  ....   0.010
   Pseudo random numbers                .... off
   Inactive MOs                         .... canonical
   Orbital update algorithm             .... Taylor
   Preconditioner                       .... Diag
   Full preconditioner red. dimension   ....   250
 SOSCF                 CNVSOSCF           .... on
   Start iteration     SOSCFMaxIt         ....   150
   Startup grad/error  SOSCFStart         ....  0.003300
   Hessian update      SOSCFHessUp        .... L-BFGS
   Autom. constraints  SOSCFAutoConstrain .... off
 Level Shifting         CNVShift        .... on
   Level shift para.    LevelShift      ....    0.2500
   Turn off err/grad.   ShiftErr        ....    0.0010
 Zerner damping         CNVZerner       .... off
 Static damping         CNVDamp         .... on
   Fraction old density DampFac         ....    0.7000
   Max. Damping (<1)    DampMax         ....    0.9800
   Min. Damping (>=0)   DampMin         ....    0.0000
   Turn off err/grad.   DampErr         ....    0.1000

SCF Procedure:
 Maximum # iterations   MaxIter         ....   125
 SCF integral mode      SCFMode         .... Direct
   Integral package                     .... SHARK and LIBINT hybrid scheme
 Reset frequency        DirectResetFreq ....    20
 Integral Threshold     Thresh          ....  2.500e-11 Eh
 Primitive CutOff       TCut            ....  2.500e-12 Eh

Convergence Tolerance:
 Convergence Check Mode ConvCheckMode   .... Total+1el-Energy
 Convergence forced     ConvForced      .... 0
 Energy Change          TolE            ....  1.000e-08 Eh
 1-El. energy change                    ....  1.000e-05 Eh
 Orbital Gradient       TolG            ....  1.000e-05
 Orbital Rotation angle TolX            ....  1.000e-05
 DIIS Error             TolErr          ....  5.000e-07

------------------------------
INITIAL GUESS: MODEL POTENTIAL
------------------------------
Loading Hartree-Fock densities                     ... done
Calculating cut-offs                               ... done
Initializing the effective Hamiltonian             ... done
Setting up the integral package (SHARK)            ... done
Starting the Coulomb interaction                   ... done (   0.0 sec)
Making the grid                                    ... done (   0.0 sec)
Mapping shells                                     ... done
Starting the XC term evaluation                    ... done (   0.0 sec)
  promolecular density results
     # of electrons  =     17.998466005
     EX              =    -14.503224672
     EC              =     -0.589451667
     EX+EC           =    -15.092676339
Transforming the Hamiltonian                       ... done (   0.0 sec)
Diagonalizing the Hamiltonian                      ... done (   0.0 sec)
Back transforming the eigenvectors                 ... done (   0.0 sec)
Now organizing SCF variables                       ... done
                      ------------------
                      INITIAL GUESS DONE (   0.0 sec)
                      ------------------
             **** ENERGY FILE WAS UPDATED (MeOH.en.tmp) ****
Finished Guess after   0.4 sec
Maximum memory used throughout the entire GUESS-calculation: 5.8 MB
[1770537488.503460] [node068:2119275:0]     ucp_context.c:1234 UCX  WARN  transport 'ib' is not available, please use one or more of: mm, posix, self, shm, sm, sysv, tcp
[1770537488.518806] [node068:2119276:0]     ucp_context.c:1234 UCX  WARN  transport 'ib' is not available, please use one or more of: mm, posix, self, shm, sm, sysv, tcp
[1770537488.544055] [node068:2119279:0]     ucp_context.c:1234 UCX  WARN  transport 'ib' is not available, please use one or more of: mm, posix, self, shm, sm, sysv, tcp
[1770537488.570204] [node068:2119282:0]     ucp_context.c:1234 UCX  WARN  transport 'ib' is not available, please use one or more of: mm, posix, self, shm, sm, sysv, tcp


           ************************************************************
           *        Program running with 4 parallel MPI-processes     *
           *              working on a common directory               *
           ************************************************************

-------------------------------------------------------------------------------------------
                                      ORCA LEAN-SCF
                              memory conserving SCF solver
-------------------------------------------------------------------------------------------

----------------------------------------D-I-I-S--------------------------------------------
Iteration    Energy (Eh)           Delta-E    RMSDP     MaxDP     DIISErr   Damp  Time(sec)
-------------------------------------------------------------------------------------------
               ***  Starting incremental Fock matrix formation  ***
    1    -115.4765582520149962     0.00e+00  1.34e-02  7.57e-02  2.47e-01  0.700   0.1
    2    -115.5181265726472475    -4.16e-02  8.63e-03  4.25e-02  1.03e-01  0.700   0.1
                               ***Turning on AO-DIIS***
    3    -115.5335801556554998    -1.55e-02  3.15e-03  1.16e-02  2.80e-02  0.700   0.1
    4    -115.5430119548233279    -9.43e-03  4.95e-03  2.04e-02  1.29e-02  0.000   0.1
    5    -115.5640794433317353    -2.11e-02  9.17e-04  3.77e-03  4.28e-03  0.000   0.1
                              *** Initializing SOSCF ***
---------------------------------------S-O-S-C-F--------------------------------------
Iteration    Energy (Eh)           Delta-E    RMSDP     MaxDP     MaxGrad    Time(sec)
--------------------------------------------------------------------------------------
    6    -115.5641471753722840    -6.77e-05  3.39e-04  1.35e-03  1.16e-03     0.1
               *** Restarting incremental Fock matrix formation ***
    7    -115.5641025542867055     4.46e-05  1.97e-04  8.73e-04  1.56e-04     0.1
    8    -115.5641028352987405    -2.81e-07  5.11e-05  3.92e-04  1.62e-04     0.1
    9    -115.5641030690755144    -2.34e-07  2.80e-05  1.05e-04  2.17e-05     0.1
   10    -115.5641030741811903    -5.11e-09  6.26e-06  3.74e-05  2.26e-05     0.1
                 **** Energy Check signals convergence ****

               *****************************************************
               *                     SUCCESS                       *
               *           SCF CONVERGED AFTER  10 CYCLES          *
               *****************************************************

Recomputing exchange energy using gridx3       ... done (    0.070 sec)
Old exchange energy                            :     -2.960450980 Eh
New exchange energy                            :     -2.960417789 Eh
Exchange energy change after final integration :      0.000033191 Eh
Total energy after final integration           :   -115.564069888 Eh
             **** ENERGY FILE WAS UPDATED (MeOH.en.tmp) ****

----------------
TOTAL SCF ENERGY
----------------

Total Energy       :       -115.56406988762615 Eh           -3144.65821 eV

Components:
Nuclear Repulsion  :         40.30848383886868 Eh            1096.84961 eV
Electronic Energy  :       -155.87258691780261 Eh           -4241.50872 eV
One Electron Energy:       -236.93883537042163 Eh           -6447.43349 eV
Two Electron Energy:         81.06624845261901 Eh            2205.92477 eV

Virial components:
Potential Energy   :       -230.10743176580542 Eh           -6261.54155 eV
Kinetic Energy     :        114.54336187817927 Eh            3116.88334 eV
Virial Ratio       :          2.00891110573944

DFT components:
N(Alpha)           :        8.999998585430 electrons
N(Beta)            :        8.999998585430 electrons
N(Total)           :       17.999997170860 electrons
E(X)               :      -11.761750799104 Eh       
E(C)               :       -0.702806748062 Eh       
E(XC)              :      -12.464557547166 Eh       

---------------
SCF CONVERGENCE
---------------

  Last Energy change         ...    5.1057e-09  Tolerance :   1.0000e-08
  Last MAX-Density change    ...    3.7351e-05  Tolerance :   1.0000e-07
  Last RMS-Density change    ...    6.2573e-06  Tolerance :   5.0000e-09
  Last DIIS Error            ...    1.1628e-03  Tolerance :   5.0000e-07
  Last Orbital Gradient      ...    2.2597e-05  Tolerance :   1.0000e-05
  Last Orbital Rotation      ...    1.0984e-05  Tolerance :   1.0000e-05


----------------
ORBITAL ENERGIES
----------------

  NO   OCC          E(Eh)            E(eV) 
   0   2.0000     -19.120489      -520.2950 
   1   2.0000     -10.224917      -278.2341 
   2   2.0000      -0.995046       -27.0766 
   3   2.0000      -0.660691       -17.9783 
   4   2.0000      -0.496032       -13.4977 
   5   2.0000      -0.436434       -11.8760 
   6   2.0000      -0.418430       -11.3861 
   7   2.0000      -0.321043        -8.7360 
   8   2.0000      -0.261445        -7.1143 
   9   0.0000       0.049090         1.3358 
  10   0.0000       0.094421         2.5693 
  11   0.0000       0.136505         3.7145 
  12   0.0000       0.137932         3.7533 
  13   0.0000       0.200313         5.4508 
  14   0.0000       0.453272        12.3342 
  15   0.0000       0.476291        12.9605 
  16   0.0000       0.483378        13.1534 
  17   0.0000       0.575050        15.6479 
  18   0.0000       0.641923        17.4676 
  19   0.0000       0.652060        17.7435 
*Only the first 10 virtual orbitals were printed.

                    ********************************
                    * MULLIKEN POPULATION ANALYSIS *
                    ********************************

-----------------------
MULLIKEN ATOMIC CHARGES
-----------------------
   0 C :    0.148461
   1 O :   -0.342097
   2 H :    0.000325
   3 H :   -0.000653
   4 H :    0.020323
   5 H :    0.173640
Sum of atomic charges:   -0.0000000

--------------------------------
MULLIKEN REDUCED ORBITAL CHARGES
--------------------------------
  0 C s       :     3.011323  s :     3.011323
      pz      :     1.015236  p :     2.782354
      px      :     0.763471
      py      :     1.003648
      dz2     :     0.009684  d :     0.057862
      dxz     :     0.010763
      dyz     :     0.007192
      dx2y2   :     0.014049
      dxy     :     0.016174

  1 O s       :     3.747968  s :     3.747968
      pz      :     1.641252  p :     4.580814
      px      :     1.402613
      py      :     1.536950
      dz2     :     0.001807  d :     0.013315
      dxz     :     0.002221
      dyz     :     0.003362
      dx2y2   :     0.004147
      dxy     :     0.001777

  2 H s       :     0.978483  s :     0.978483
      pz      :     0.005700  p :     0.021192
      px      :     0.006575
      py      :     0.008917

  3 H s       :     0.979234  s :     0.979234
      pz      :     0.012794  p :     0.021419
      px      :     0.003171
      py      :     0.005454

  4 H s       :     0.958541  s :     0.958541
      pz      :     0.008122  p :     0.021136
      px      :     0.002283
      py      :     0.010731

  5 H s       :     0.762276  s :     0.762276
      pz      :     0.023980  p :     0.064084
      px      :     0.014179
      py      :     0.025925



                     *******************************
                     * LOEWDIN POPULATION ANALYSIS *
                     *******************************

----------------------
LOEWDIN ATOMIC CHARGES
----------------------
   0 C :    0.054991
   1 O :   -0.168335
   2 H :    0.000183
   3 H :    0.000786
   4 H :    0.019295
   5 H :    0.093080

-------------------------------
LOEWDIN REDUCED ORBITAL CHARGES
-------------------------------
  0 C s       :     2.850286  s :     2.850286
      pz      :     1.069371  p :     2.965112
      px      :     0.847742
      py      :     1.047998
      dz2     :     0.023101  d :     0.129611
      dxz     :     0.022701
      dyz     :     0.017971
      dx2y2   :     0.030406
      dxy     :     0.035433

  1 O s       :     3.467093  s :     3.467093
      pz      :     1.663538  p :     4.676822
      px      :     1.448939
      py      :     1.564346
      dz2     :     0.002802  d :     0.024420
      dxz     :     0.003205
      dyz     :     0.007031
      dx2y2   :     0.007991
      dxy     :     0.003391

  2 H s       :     0.937899  s :     0.937899
      pz      :     0.014440  p :     0.061918
      px      :     0.021984
      py      :     0.025493

  3 H s       :     0.937431  s :     0.937431
      pz      :     0.037158  p :     0.061783
      px      :     0.010262
      py      :     0.014362

  4 H s       :     0.920825  s :     0.920825
      pz      :     0.021465  p :     0.059880
      px      :     0.008090
      py      :     0.030325

  5 H s       :     0.744490  s :     0.744490
      pz      :     0.064614  p :     0.162430
      px      :     0.031618
      py      :     0.066198



                      *****************************
                      * MAYER POPULATION ANALYSIS *
                      *****************************

  NA   - Mulliken gross atomic population
  ZA   - Total nuclear charge
  QA   - Mulliken gross atomic charge
  VA   - Mayer's total valence
  BVA  - Mayer's bonded valence
  FA   - Mayer's free valence

  ATOM       NA         ZA         QA         VA         BVA        FA
  0 C      5.8515     6.0000     0.1485     3.9741     3.9741    -0.0000
  1 O      8.3421     8.0000    -0.3421     2.0552     2.0552    -0.0000
  2 H      0.9997     1.0000     0.0003     0.9750     0.9750     0.0000
  3 H      1.0007     1.0000    -0.0007     0.9753     0.9753     0.0000
  4 H      0.9797     1.0000     0.0203     0.9836     0.9836    -0.0000
  5 H      0.8264     1.0000     0.1736     1.0001     1.0001    -0.0000

  Mayer bond orders larger than 0.100000
B(  0-C ,  1-O ) :   1.0436 B(  0-C ,  2-H ) :   0.9698 B(  0-C ,  3-H ) :   0.9717 
B(  0-C ,  4-H ) :   0.9785 B(  1-O ,  5-H ) :   0.9764 

-------
TIMINGS
-------

Total SCF time: 0 days 0 hours 0 min 1 sec 

Total time                  ....       1.179 sec
Sum of individual times     ....       1.096 sec  ( 92.9%)

SCF preparation             ....       0.417 sec  ( 35.3%)
Fock matrix formation       ....       0.624 sec  ( 52.9%)
  Startup                   ....       0.002 sec  (  0.3% of F)
  Split-RI-J                ....       0.034 sec  (  5.4% of F)
  Chain of spheres X        ....       0.443 sec  ( 70.9% of F)
  XC integration            ....       0.178 sec  ( 28.5% of F)
    XC Preparation          ....       0.000 sec  (  0.0% of XC)
    Basis function eval.    ....       0.052 sec  ( 29.2% of XC)
    Density eval.           ....       0.021 sec  ( 11.9% of XC)
    XC-Functional eval.     ....       0.019 sec  ( 10.7% of XC)
    XC-Potential eval.      ....       0.028 sec  ( 15.6% of XC)
Diagonalization             ....       0.000 sec  (  0.0%)
Density matrix formation    ....       0.008 sec  (  0.7%)
Total Energy calculation    ....       0.005 sec  (  0.4%)
Population analysis         ....       0.004 sec  (  0.3%)
Orbital Transformation      ....       0.004 sec  (  0.4%)
Orbital Orthonormalization  ....       0.000 sec  (  0.0%)
DIIS solution               ....       0.022 sec  (  1.8%)
SOSCF solution              ....       0.012 sec  (  1.0%)
Finished LeanSCF after   1.2 sec

Maximum memory used throughout the entire LEANSCF-calculation: 5.6 MB
[1770537490.795177] [node068:2119296:0]     ucp_context.c:1234 UCX  WARN  transport 'ib' is not available, please use one or more of: mm, posix, self, shm, sm, sysv, tcp
[1770537490.809845] [node068:2119297:0]     ucp_context.c:1234 UCX  WARN  transport 'ib' is not available, please use one or more of: mm, posix, self, shm, sm, sysv, tcp
[1770537490.836091] [node068:2119299:0]     ucp_context.c:1234 UCX  WARN  transport 'ib' is not available, please use one or more of: mm, posix, self, shm, sm, sysv, tcp
[1770537490.863335] [node068:2119303:0]     ucp_context.c:1234 UCX  WARN  transport 'ib' is not available, please use one or more of: mm, posix, self, shm, sm, sysv, tcp


           ************************************************************
           *        Program running with 4 parallel MPI-processes     *
           *              working on a common directory               *
           ************************************************************

------------------------------------------------------------------------------
                         ORCA PROPERTY INTEGRAL CALCULATIONS
------------------------------------------------------------------------------

GBWName                                   ... MeOH.gbw
Number of atoms                           ...      6
Number of basis functions                 ...     48
Max core memory                           ...   1500 MB

Dipole integrals                          ... YES
Quadrupole integrals                      ...  NO
Linear momentum integrals                 ...  NO
Angular momentum integrals                ...  NO
Higher moments length integrals           ...  NO
Higher moments velocity integrals         ...  NO
Kinetic energy integrals                  ...  NO
GIAO right hand sides                     ...  NO
GIAO dipole derivative integrals          ...  NO
SOC integrals                             ...  NO
EPR diamagnetic integrals (GIAO)          ...  NO
EPR gauge integrals                       ...  NO
Field gradient integrals                  ...  NO (   0 nuclei)
Spin-dipole/Fermi contact integrals       ...  NO (   0 nuclei)
Contact density integrals                 ...  NO (   0 nuclei)
Nucleus-orbit integrals                   ...  NO (   0 nuclei)
Geometric perturbations                   ...  NO (   6 nuclei)

Choice of electric origin   ... Center of mass
Position of electric origin ... ( -9.2465, -0.5676,  0.0527) 
Choice of magnetic origin   ... GIAO
Position of magnetic origin ... (  0.0000,  0.0000,  0.0000) 

Calculating integrals                     ... Electric Dipole (Length)     done (  0.0 sec)

Property integrals calculated in   0.0 sec

Maximum memory used throughout the entire PROPINT-calculation: 5.9 MB

-------------------------   --------------------
FINAL SINGLE POINT ENERGY      -115.564069887626
-------------------------   --------------------

[1770537492.300999] [node068:2119316:0]     ucp_context.c:1234 UCX  WARN  transport 'ib' is not available, please use one or more of: mm, posix, self, shm, sm, sysv, tcp
[1770537492.320743] [node068:2119317:0]     ucp_context.c:1234 UCX  WARN  transport 'ib' is not available, please use one or more of: mm, posix, self, shm, sm, sysv, tcp
[1770537492.343668] [node068:2119320:0]     ucp_context.c:1234 UCX  WARN  transport 'ib' is not available, please use one or more of: mm, posix, self, shm, sm, sysv, tcp
[1770537492.370554] [node068:2119323:0]     ucp_context.c:1234 UCX  WARN  transport 'ib' is not available, please use one or more of: mm, posix, self, shm, sm, sysv, tcp


           ************************************************************
           *        Program running with 4 parallel MPI-processes     *
           *              working on a common directory               *
           ************************************************************
------------------------------------------------------------------------------
                         ORCA SCF GRADIENT CALCULATION
------------------------------------------------------------------------------

Nuc. rep. gradient        (SHARK) ... done (  0.0 sec)
HCore & Overlap gradient  (SHARK) ... done (  0.0 sec)
Split-RIJ-J gradient      (SHARK) ... done (  0.1 sec)
done (  0.3 sec)
XC gradient                       ... done (  0.1 sec)

------------------
CARTESIAN GRADIENT
------------------

   1   C   :    0.001693017    0.002592161   -0.000822579
   2   O   :   -0.014249678   -0.020655189    0.017376831
   3   H   :    0.005090063    0.003646092    0.003499347
   4   H   :    0.005852242   -0.001233330   -0.002150312
   5   H   :   -0.001043453   -0.004253447    0.001922835
   6   H   :    0.002657809    0.019903713   -0.019826122

Difference to translation invariance:
           :    0.0000000000   -0.0000000000    0.0000000001

Difference to rotation invariance:
           :    0.0000104639   -0.0000046466   -0.0000161386

Norm of the Cartesian gradient     ...    0.0430455951
RMS gradient                       ...    0.0101459441
MAX gradient                       ...    0.0206551889

-------
TIMINGS
-------

Total SCF gradient time     ....        0.430 sec

Densities                   ....       0.000 sec  (  0.0%)
One electron gradient       ....       0.004 sec  (  1.0%)
RI-J Coulomb gradient       ....       0.051 sec  ( 11.9%)
COSX gradient               ....       0.306 sec  ( 71.3%)
XC gradient                 ....       0.067 sec  ( 15.7%)

Maximum memory used throughout the entire SCFGRAD-calculation: 7.3 MB
------------------------------------------------------------------------------
                         ORCA GEOMETRY RELAXATION STEP
------------------------------------------------------------------------------

Reading the OPT-File                    .... done
Getting information on internals        .... done
Copying old internal coords+grads       .... done
Making the new internal coordinates     .... (2022 redundants) done
Validating the new internal coordinates .... (2022 redundants) done
Calculating the B-matrix                .... done
Calculating the G,G- and P matrices     .... done
Transforming gradient to internals      .... done
Projecting the internal gradient        .... done
Number of atoms                         ....   6
Number of internal coordinates          ....  15
Current Energy                          ....  -115.564069888 Eh
Current gradient norm                   ....     0.043045595 Eh/bohr
Maximum allowed component of the step   ....  0.300
Current trust radius                    ....  0.300
Evaluating the initial hessian          ....  (Almloef) done
Projecting the Hessian                  .... done
Forming the augmented Hessian           .... done
Diagonalizing the augmented Hessian     .... done
Last element of RFO vector              ....  0.996462306
Lowest eigenvalues of augmented Hessian:
 -0.002734861  0.023512699  0.182691358  0.189858212  0.311099719
Length of the computed step             ....  0.084339263
The final length of the internal step   ....  0.084339263
Converting the step to Cartesian space:
 Initial RMS(Int)=    0.0217763041
Transforming coordinates:
 Iter   0:  RMS(Cart)=    0.0226454524 RMS(Int)=    0.0218529713
done
Storing new coordinates                 .... done

                                .--------------------.
          ----------------------|Geometry convergence|-------------------------
          Item                value                   Tolerance       Converged
          ---------------------------------------------------------------------
          RMS gradient        0.0088128925            0.0001000000      NO
          MAX gradient        0.0281746192            0.0003000000      NO
          RMS step            0.0217763041            0.0020000000      NO
          MAX step            0.0616886087            0.0040000000      NO
          -------------------------------------------------------------------------
          ........................................................
          Max(Bonds)      0.0326      Max(Angles)    1.51
          Max(Dihed)        0.86      Max(Improp)    0.00
          ---------------------------------------------------------------------

The optimization has not yet converged - more geometry cycles are needed


    ---------------------------------------------------------------------------
                         Redundant Internal Coordinates
                            (Angstroem and degrees)

        Definition                    Value    dE/dq     Step     New-Value
    ----------------------------------------------------------------------------
     1. B(O   1,C   0)                1.3980 -0.011435  0.0111    1.4091   
     2. B(H   2,C   0)                1.1099  0.000464 -0.0007    1.1092   
     3. B(H   3,C   0)                1.1105  0.001161 -0.0018    1.1087   
     4. B(H   4,C   0)                1.1095  0.004668 -0.0073    1.1022   
     5. B(H   5,O   1)                0.9969  0.028175 -0.0326    0.9643   
     6. A(O   1,C   0,H   3)          111.21 -0.006912    1.24    112.45   
     7. A(O   1,C   0,H   2)          110.72 -0.008473    1.49    112.21   
     8. A(O   1,C   0,H   4)          108.53  0.003542   -0.56    107.97   
     9. A(H   2,C   0,H   4)          107.97  0.002755   -0.52    107.44   
    10. A(H   3,C   0,H   4)          107.20  0.001499   -0.23    106.97   
    11. A(H   2,C   0,H   3)          111.06  0.008166   -1.51    109.55   
    12. A(C   0,O   1,H   5)          107.12 -0.002800    0.45    107.57   
    13. D(H   5,O   1,C   0,H   3)     55.37 -0.000537    0.76     56.13   
    14. D(H   5,O   1,C   0,H   4)    173.06 -0.000555    0.86    173.91   
    15. D(H   5,O   1,C   0,H   2)    -68.61  0.000011    0.75    -67.86   
    ----------------------------------------------------------------------------

Geometry step timings:
Preparation and reading OPT file:      0.000 s ( 2.800 %)
Internal coordinates            :      0.000 s ( 7.267 %)
B/P matrices and projection     :      0.000 s (14.333 %)
Hessian update/contruction      :      0.000 s (11.533 %)
Making the step                 :      0.000 s (14.000 %)
Converting the step to Cartesian:      0.000 s ( 5.600 %)
Storing new data                :      0.000 s ( 3.133 %)
Checking convergence            :      0.000 s (12.600 %)
Final printing                  :      0.000 s (28.333 %)
Total time                      :      0.002 s
[1770537494.242067] [node068:2119336:0]     ucp_context.c:1234 UCX  WARN  transport 'ib' is not available, please use one or more of: mm, posix, self, shm, sm, sysv, tcp
[1770537494.255202] [node068:2119337:0]     ucp_context.c:1234 UCX  WARN  transport 'ib' is not available, please use one or more of: mm, posix, self, shm, sm, sysv, tcp
[1770537494.279316] [node068:2119339:0]     ucp_context.c:1234 UCX  WARN  transport 'ib' is not available, please use one or more of: mm, posix, self, shm, sm, sysv, tcp
[1770537494.306227] [node068:2119343:0]     ucp_context.c:1234 UCX  WARN  transport 'ib' is not available, please use one or more of: mm, posix, self, shm, sm, sysv, tcp

Time for energy+gradient        :      8.910 s
Time for complete geometry iter :     10.385 s

         *************************************************************
         *                GEOMETRY OPTIMIZATION CYCLE   2            *
         *************************************************************
---------------------------------
CARTESIAN COORDINATES (ANGSTROEM)
---------------------------------
  C     -5.565117   -0.532520   -0.018675
  O     -4.227947   -0.103621    0.098110
  H     -6.284480    0.241332    0.318924
  H     -5.819213   -0.850267   -1.050052
  H     -5.697835   -1.412888    0.631071
  H     -4.092179    0.604001   -0.542739

----------------------------
CARTESIAN COORDINATES (A.U.)
----------------------------
  NO LB      ZA    FRAG     MASS         X           Y           Z
   0 C     6.0000    0    12.011  -10.516546   -1.006318   -0.035291
   1 O     8.0000    0    15.999   -7.989663   -0.195816    0.185402
   2 H     1.0000    0     1.008  -11.875946    0.456052    0.602678
   3 H     1.0000    0     1.008  -10.996718   -1.606771   -1.984310
   4 H     1.0000    0     1.008  -10.767348   -2.669972    1.192551
   5 H     1.0000    0     1.008   -7.733097    1.141396   -1.025628

--------------------------------
INTERNAL COORDINATES (ANGSTROEM)
--------------------------------
 C      0   0   0     0.000000000000     0.00000000     0.00000000
 O      1   0   0     1.409118366467     0.00000000     0.00000000
 H      1   2   0     1.109190721075   112.20082819     0.00000000
 H      1   2   3     1.108722472122   112.44546034   124.01565420
 H      1   2   3     1.102193670047   107.97032425   241.78924936
 H      2   1   3     0.964287409756   107.57097053   292.12604024

---------------------------
INTERNAL COORDINATES (A.U.)
---------------------------
 C      0   0   0     0.000000000000     0.00000000     0.00000000
 O      1   0   0     2.662847802901     0.00000000     0.00000000
 H      1   2   0     2.096066693119   112.20082819     0.00000000
 H      1   2   3     2.095181830834   112.44546034   124.01565420
 H      1   2   3     2.082844182930   107.97032425   241.78924936
 H      2   1   3     1.822239118828   107.57097053   292.12604024

[1770537495.714010] [node068:2119356:0]     ucp_context.c:1234 UCX  WARN  transport 'ib' is not available, please use one or more of: mm, posix, self, shm, sm, sysv, tcp
[1770537495.732204] [node068:2119357:0]     ucp_context.c:1234 UCX  WARN  transport 'ib' is not available, please use one or more of: mm, posix, self, shm, sm, sysv, tcp
[1770537495.754440] [node068:2119360:0]     ucp_context.c:1234 UCX  WARN  transport 'ib' is not available, please use one or more of: mm, posix, self, shm, sm, sysv, tcp
[1770537495.781824] [node068:2119363:0]     ucp_context.c:1234 UCX  WARN  transport 'ib' is not available, please use one or more of: mm, posix, self, shm, sm, sysv, tcp


           ************************************************************
           *        Program running with 4 parallel MPI-processes     *
           *              working on a common directory               *
           ************************************************************
------------------------------------------------------------------------------
                   ___                                                        
                  /   \      - P O W E R E D   B Y -                         
                 /     \                                                     
                 |  |  |   _    _      __       _____    __    __             
                 |  |  |  | |  | |    /  \     |  _  \  |  |  /  |          
                  \  \/   | |  | |   /    \    | | | |  |  | /  /          
                 / \  \   | |__| |  /  /\  \   | |_| |  |  |/  /          
                |  |  |   |  __  | /  /__\  \  |    /   |      \           
                |  |  |   | |  | | |   __   |  |    \   |  |\   \          
                \     /   | |  | | |  |  |  |  | |\  \  |  | \   \       
                 \___/    |_|  |_| |__|  |__|  |_| \__\ |__|  \__/        
                                                                              
                      - O R C A' S   B I G   F R I E N D -                    
                                      &                                       
                       - I N T E G R A L  F E E D E R -                       
                                                                              
 v1 FN, 2020, v2 2021, v3 2022-2024                                           
------------------------------------------------------------------------------


----------------------
SHARK INTEGRAL PACKAGE
----------------------

Number of atoms                             ...      6
Number of basis functions                   ...     48
Number of shells                            ...     24
Maximum angular momentum                    ...      2
Integral batch strategy                     ... SHARK/LIBINT Hybrid
RI-J (if used) integral strategy            ... SPLIT-RIJ (Revised 2003 algorithm where possible)
Printlevel                                  ...      1
Contraction scheme used                     ... SEGMENTED contraction
Prescreening option                         ... SCHWARTZ
   Thresh                                   ... 2.500e-11
   Tcut                                     ... 2.500e-12
   Tpresel                                  ... 2.500e-12 
Coulomb Range Separation                    ... NOT USED
Exchange Range Separation                   ... NOT USED
Multipole approximations                    ... NOT USED
Finite Nucleus Model                        ... NOT USED
CABS basis                                  ... NOT available
Auxiliary Coulomb fitting basis             ... AVAILABLE
   # of basis functions in Aux-J            ...    142
   # of shells in Aux-J                     ...     50
   Maximum angular momentum in Aux-J        ...      4
Auxiliary J/K fitting basis                 ... NOT available
Auxiliary Correlation fitting basis         ... NOT available
Auxiliary 'external' fitting basis          ... NOT available

Checking pre-screening integrals            ... done (  0.0 sec) Dimension = 24
   => SHARK Basis and OBASIS are compatible. Storing Pre-screening
Shell pair information
Shell pair cut-off parameter TPreSel        ...   2.5e-12
Total number of shell pairs                 ...       300
Shell pairs after pre-screening             ...       300
Total number of primitive shell pairs       ...      1028
Primitive shell pairs kept                  ...       940
          la=0 lb=0:    105 shell pairs
          la=1 lb=0:    112 shell pairs
          la=1 lb=1:     36 shell pairs
          la=2 lb=0:     28 shell pairs
          la=2 lb=1:     16 shell pairs
          la=2 lb=2:      3 shell pairs

Checking whether 4 symmetric matrices of dimension 48 fit in memory
:Max Core in MB      =   1500.00
 MB in use           =      3.59
 MB left             =   1496.41
 MB needed           =      0.04
 Data fit in memory  = YES
Calculating RI/J V-Matrix + Cholesky decomp.... done (  0.0 sec)
Calculating Nuclear repulsion               ... done (  0.0 sec) ENN=     40.301046382559 Eh

Diagonalization of the overlap matrix:
Smallest eigenvalue                        ... 1.186e-02
Time for diagonalization                   ...    0.000 sec
Threshold for overlap eigenvalues          ... 1.000e-07
Number of eigenvalues below threshold      ... 0
Time for construction of square roots      ...    0.000 sec
Total time needed                          ...    0.001 sec

-------------------
DFT GRID GENERATION
-------------------

General Integration Accuracy     IntAcc      ... 4.388
Radial Grid Type                 RadialGrid  ... OptM3 with GC (2021)
Angular Grid (max. ang.)         AngularGrid ... 4 (Lebedev-302)
Angular grid pruning method      GridPruning ... 4 (adaptive)
Weight generation scheme         WeightScheme... mBecke (2022)
Basis function cutoff            BFCut       ... 1.0000e-11
Integration weight cutoff        WCut        ... 1.0000e-14
Partially contracted basis set               ... off
Rotationally invariant grid construction     ... off
Angular grids for H and He will be reduced by one unit

Total number of grid points                  ...    25327
Total number of batches                      ...      397
Average number of points per batch           ...       63
Average number of grid points per atom       ...     4221

--------------------
COSX GRID GENERATION
--------------------

GRIDX 1
-------
General Integration Accuracy     IntAcc      ... 3.816
Radial Grid Type                 RadialGrid  ... OptM3 with GC (2021)
Angular Grid (max. ang.)         AngularGrid ... 1 (Lebedev-50)
Angular grid pruning method      GridPruning ... 4 (adaptive)
Weight generation scheme         WeightScheme... mBecke (2022)
Basis function cutoff            BFCut       ... 1.0000e-11
Integration weight cutoff        WCut        ... 1.0000e-14
Partially contracted basis set               ... on
Rotationally invariant grid construction     ... off
Angular grids for H and He will be reduced by one unit

Total number of grid points                  ...     3289
Total number of batches                      ...       29
Average number of points per batch           ...      113
Average number of grid points per atom       ...      548
UseSFitting                                  ... on

GRIDX 2
-------
General Integration Accuracy     IntAcc      ... 4.020
Radial Grid Type                 RadialGrid  ... OptM3 with GC (2021)
Angular Grid (max. ang.)         AngularGrid ... 2 (Lebedev-110)
Angular grid pruning method      GridPruning ... 4 (adaptive)
Weight generation scheme         WeightScheme... mBecke (2022)
Basis function cutoff            BFCut       ... 1.0000e-11
Integration weight cutoff        WCut        ... 1.0000e-14
Partially contracted basis set               ... on
Rotationally invariant grid construction     ... off
Angular grids for H and He will be reduced by one unit

Total number of grid points                  ...     6933
Total number of batches                      ...       57
Average number of points per batch           ...      121
Average number of grid points per atom       ...     1156
UseSFitting                                  ... on

GRIDX 3
-------
General Integration Accuracy     IntAcc      ... 4.338
Radial Grid Type                 RadialGrid  ... OptM3 with GC (2021)
Angular Grid (max. ang.)         AngularGrid ... 3 (Lebedev-194)
Angular grid pruning method      GridPruning ... 4 (adaptive)
Weight generation scheme         WeightScheme... mBecke (2022)
Basis function cutoff            BFCut       ... 1.0000e-11
Integration weight cutoff        WCut        ... 1.0000e-14
Partially contracted basis set               ... on
Rotationally invariant grid construction     ... off
Angular grids for H and He will be reduced by one unit

Total number of grid points                  ...    15220
Total number of batches                      ...      121
Average number of points per batch           ...      125
Average number of grid points per atom       ...     2537
UseSFitting                                  ... on
Grids setup in   0.1 sec
Initializing property integral containers    ... done (  0.0 sec)

SHARK setup successfully completed in   0.2 seconds

Maximum memory used throughout the entire STARTUP-calculation: 9.4 MB
[1770537497.342870] [node068:2119376:0]     ucp_context.c:1234 UCX  WARN  transport 'ib' is not available, please use one or more of: mm, posix, self, shm, sm, sysv, tcp
[1770537497.358211] [node068:2119377:0]     ucp_context.c:1234 UCX  WARN  transport 'ib' is not available, please use one or more of: mm, posix, self, shm, sm, sysv, tcp
[1770537497.383795] [node068:2119379:0]     ucp_context.c:1234 UCX  WARN  transport 'ib' is not available, please use one or more of: mm, posix, self, shm, sm, sysv, tcp
[1770537497.411213] [node068:2119383:0]     ucp_context.c:1234 UCX  WARN  transport 'ib' is not available, please use one or more of: mm, posix, self, shm, sm, sysv, tcp


           ************************************************************
           *        Program running with 4 parallel MPI-processes     *
           *              working on a common directory               *
           ************************************************************
Occupation numbers will be reassigned to an Aufbau configuration
             **** ENERGY FILE WAS UPDATED (MeOH.en.tmp) ****
Finished Guess after   0.4 sec
Maximum memory used throughout the entire GUESS-calculation: 5.8 MB
[1770537498.858198] [node068:2119396:0]     ucp_context.c:1234 UCX  WARN  transport 'ib' is not available, please use one or more of: mm, posix, self, shm, sm, sysv, tcp
[1770537498.873516] [node068:2119397:0]     ucp_context.c:1234 UCX  WARN  transport 'ib' is not available, please use one or more of: mm, posix, self, shm, sm, sysv, tcp
[1770537498.898925] [node068:2119399:0]     ucp_context.c:1234 UCX  WARN  transport 'ib' is not available, please use one or more of: mm, posix, self, shm, sm, sysv, tcp
[1770537498.925292] [node068:2119403:0]     ucp_context.c:1234 UCX  WARN  transport 'ib' is not available, please use one or more of: mm, posix, self, shm, sm, sysv, tcp


           ************************************************************
           *        Program running with 4 parallel MPI-processes     *
           *              working on a common directory               *
           ************************************************************
----------------------------------------D-I-I-S--------------------------------------------
Iteration    Energy (Eh)           Delta-E    RMSDP     MaxDP     DIISErr   Damp  Time(sec)
-------------------------------------------------------------------------------------------
               ***  Starting incremental Fock matrix formation  ***
    1    -115.5651709291823863     0.00e+00  6.94e-04  4.70e-03  9.83e-03  0.700   0.1
    2    -115.5652997326888567    -1.29e-04  5.83e-04  3.90e-03  7.32e-03  0.700   0.1
                               ***Turning on AO-DIIS***
    3    -115.5653919477124987    -9.22e-05  4.33e-04  2.71e-03  5.17e-03  0.700   0.1
    4    -115.5654566397487883    -6.47e-05  1.06e-03  6.27e-03  3.70e-03  0.000   0.1
                              *** Initializing SOSCF ***
---------------------------------------S-O-S-C-F--------------------------------------
Iteration    Energy (Eh)           Delta-E    RMSDP     MaxDP     MaxGrad    Time(sec)
--------------------------------------------------------------------------------------
    5    -115.5656131334200154    -1.56e-04  5.73e-05  3.13e-04  2.48e-04     0.1
               *** Restarting incremental Fock matrix formation ***
    6    -115.5656128231952664     3.10e-07  4.12e-05  2.19e-04  5.99e-05     0.1
    7    -115.5656128333809818    -1.02e-08  1.96e-05  1.03e-04  7.53e-05     0.1
    8    -115.5656128702035801    -3.68e-08  6.33e-06  3.93e-05  7.94e-06     0.1
    9    -115.5656128712874420    -1.08e-09  1.46e-06  9.57e-06  3.54e-06     0.1
                 **** Energy Check signals convergence ****

               *****************************************************
               *                     SUCCESS                       *
               *           SCF CONVERGED AFTER   9 CYCLES          *
               *****************************************************

Recomputing exchange energy using gridx3       ... done (    0.069 sec)
Old exchange energy                            :     -2.963012498 Eh
New exchange energy                            :     -2.962986865 Eh
Exchange energy change after final integration :      0.000025633 Eh
Total energy after final integration           :   -115.565587239 Eh
             **** ENERGY FILE WAS UPDATED (MeOH.en.tmp) ****

----------------
TOTAL SCF ENERGY
----------------

Total Energy       :       -115.56558723859882 Eh           -3144.69950 eV

Components:
Nuclear Repulsion  :         40.30104638255869 Eh            1096.64722 eV
Electronic Energy  :       -155.86665925416793 Eh           -4241.34742 eV
One Electron Energy:       -236.89621091252926 Eh           -6446.27362 eV
Two Electron Energy:         81.02955165836133 Eh            2204.92620 eV

Virial components:
Potential Energy   :       -230.14185133551990 Eh           -6262.47815 eV
Kinetic Energy     :        114.57626409692109 Eh            3117.77865 eV
Virial Ratio       :          2.00863462558738

DFT components:
N(Alpha)           :        8.999998556674 electrons
N(Beta)            :        8.999998556674 electrons
N(Total)           :       17.999997113349 electrons
E(X)               :      -11.770362180215 Eh       
E(C)               :       -0.703155814357 Eh       
E(XC)              :      -12.473517994571 Eh       

---------------
SCF CONVERGENCE
---------------

  Last Energy change         ...    1.0839e-09  Tolerance :   1.0000e-08
  Last MAX-Density change    ...    9.5676e-06  Tolerance :   1.0000e-07
  Last RMS-Density change    ...    1.4639e-06  Tolerance :   5.0000e-09
  Last DIIS Error            ...    2.4835e-04  Tolerance :   5.0000e-07
  Last Orbital Gradient      ...    3.5405e-06  Tolerance :   1.0000e-05
  Last Orbital Rotation      ...    3.7708e-06  Tolerance :   1.0000e-05


Total SCF time: 0 days 0 hours 0 min 1 sec 
Finished LeanSCF after   1.1 sec

Maximum memory used throughout the entire LEANSCF-calculation: 5.7 MB
[1770537501.084117] [node068:2119417:0]     ucp_context.c:1234 UCX  WARN  transport 'ib' is not available, please use one or more of: mm, posix, self, shm, sm, sysv, tcp
[1770537501.101009] [node068:2119418:0]     ucp_context.c:1234 UCX  WARN  transport 'ib' is not available, please use one or more of: mm, posix, self, shm, sm, sysv, tcp
[1770537501.124912] [node068:2119420:0]     ucp_context.c:1234 UCX  WARN  transport 'ib' is not available, please use one or more of: mm, posix, self, shm, sm, sysv, tcp
[1770537501.151822] [node068:2119424:0]     ucp_context.c:1234 UCX  WARN  transport 'ib' is not available, please use one or more of: mm, posix, self, shm, sm, sysv, tcp


           ************************************************************
           *        Program running with 4 parallel MPI-processes     *
           *              working on a common directory               *
           ************************************************************

------------------------------------------------------------------------------
                         ORCA PROPERTY INTEGRAL CALCULATIONS
------------------------------------------------------------------------------

GBWName                                   ... MeOH.gbw
Number of atoms                           ...      6
Number of basis functions                 ...     48
Max core memory                           ...   1500 MB

Dipole integrals                          ... YES
Quadrupole integrals                      ...  NO
Linear momentum integrals                 ...  NO
Angular momentum integrals                ...  NO
Higher moments length integrals           ...  NO
Higher moments velocity integrals         ...  NO
Kinetic energy integrals                  ...  NO
[...]

-----------
SCF HESSIAN
-----------

Occupied/Occupied contributions to the Hessian:
   => Occupied/Occupied contributions              ... done (  0.0 sec)
Perturbed density contributions to the Hessian:
   => Perturbed density contributions              ... done (  0.0 sec)
Explicit contributions to the Hessian:
   => Nuclear repulsion Hessian                    ... done (  0.0 sec)
   => HCore and overlap Hessian                    ... done (  0.0 sec)
   => RI-J Hessian                                 ... done (  0.1 sec)
   => COSX Hessian                                 ... done (  2.5 sec)
   => XC-Hessian                                   ... done (  0.4 sec)
   => Explicit contributions done
Dipole derivatives                                 ... done (  0.0 sec)
Mass weighting the Hessian           ... done
Calculating normal modes             ... done
Scaling frequencies                  ... done

-----------------------
VIBRATIONAL FREQUENCIES
-----------------------

Scaling factor for frequencies =  1.000000000  (already applied!)

     0:       0.00 cm**-1
     1:       0.00 cm**-1
     2:       0.00 cm**-1
     3:       0.00 cm**-1
     4:       0.00 cm**-1
     5:       0.00 cm**-1
     6:     330.82 cm**-1
     7:    1069.66 cm**-1
     8:    1106.46 cm**-1
     9:    1170.78 cm**-1
    10:    1363.44 cm**-1
    11:    1467.91 cm**-1
    12:    1473.82 cm**-1
    13:    1493.29 cm**-1
    14:    2960.01 cm**-1
    15:    3010.19 cm**-1
    16:    3103.02 cm**-1
    17:    3819.40 cm**-1


------------
NORMAL MODES
------------

These modes are the Cartesian displacements weighted by the diagonal matrix
M(i,i)=1/sqrt(m[i]) where m[i] is the mass of the displaced atom
Thus, these vectors are normalized but *not* orthogonal

                  0          1          2          3          4          5    
      0       0.000000   0.000000   0.000000   0.000000   0.000000   0.000000
      1       0.000000   0.000000   0.000000   0.000000   0.000000   0.000000
      2       0.000000   0.000000   0.000000   0.000000   0.000000   0.000000
      3       0.000000   0.000000   0.000000   0.000000   0.000000   0.000000
      4       0.000000   0.000000   0.000000   0.000000   0.000000   0.000000
      5       0.000000   0.000000   0.000000   0.000000   0.000000   0.000000
      6       0.000000   0.000000   0.000000   0.000000   0.000000   0.000000
      7       0.000000   0.000000   0.000000   0.000000   0.000000   0.000000
      8       0.000000   0.000000   0.000000   0.000000   0.000000   0.000000
      9       0.000000   0.000000   0.000000   0.000000   0.000000   0.000000
     10       0.000000   0.000000   0.000000   0.000000   0.000000   0.000000
     11       0.000000   0.000000   0.000000   0.000000   0.000000   0.000000
     12       0.000000   0.000000   0.000000   0.000000   0.000000   0.000000
     13       0.000000   0.000000   0.000000   0.000000   0.000000   0.000000
     14       0.000000   0.000000   0.000000   0.000000   0.000000   0.000000
     15       0.000000   0.000000   0.000000   0.000000   0.000000   0.000000
     16       0.000000   0.000000   0.000000   0.000000   0.000000   0.000000
     17       0.000000   0.000000   0.000000   0.000000   0.000000   0.000000
                  6          7          8          9         10         11    
      0      -0.000840   0.050953   0.349497   0.034574  -0.005585   0.012774
      1       0.002171   0.074333   0.061554  -0.087042   0.099117  -0.034943
      2       0.002570  -0.044731   0.063368  -0.105663  -0.083393  -0.041451
      3       0.015511  -0.093154  -0.277132  -0.015479   0.035468   0.002352
      4      -0.039392  -0.032367  -0.075677   0.038845  -0.051706  -0.006204
      5      -0.047846  -0.003545  -0.028025   0.047234   0.054084  -0.007233
      6       0.026690  -0.169714   0.433766   0.570134  -0.089209  -0.215275
      7       0.114686  -0.210669   0.245526   0.259859  -0.117473  -0.335957
      8      -0.222303   0.173258  -0.114782   0.233044   0.253581   0.273214
      9       0.023135  -0.151690   0.417485  -0.664212  -0.022148   0.190933
     10      -0.241226  -0.261367   0.295282  -0.016589  -0.289055   0.411858
     11       0.068470   0.111054  -0.054300   0.060147   0.044120  -0.202165
     12      -0.070928   0.582088  -0.150187  -0.071752   0.387521  -0.165332
     13       0.180330   0.102520   0.024642   0.178210   0.127040   0.442120
     14       0.219693   0.105233  -0.070023   0.217290   0.022193   0.541445
     15      -0.215073   0.610717  -0.466908  -0.000451  -0.772560   0.000129
     16       0.545575  -0.002480  -0.097766  -0.000867  -0.080875  -0.003175
     17       0.662938   0.199725  -0.071141  -0.001134  -0.184630  -0.003783
                 12         13         14         15         16         17    
      0       0.068446  -0.082424   0.047497  -0.022812  -0.003086  -0.001569
      1       0.046632  -0.010172  -0.008125   0.057963   0.069117   0.001432
      2      -0.017185  -0.018561   0.021787   0.070709  -0.057728  -0.001693
      3       0.004012  -0.015357   0.002718   0.000119   0.000394   0.010479
      4       0.011421   0.010834   0.000977  -0.000280  -0.001292   0.049253
      5      -0.008252  -0.013906   0.000083  -0.000353   0.001187  -0.037134
      6      -0.157450   0.437321  -0.429409   0.443989   0.105091  -0.003406
      7      -0.309135   0.217842   0.487421  -0.508340  -0.116846  -0.001646
      8       0.349228   0.497189   0.210502  -0.193347  -0.063845   0.000113
      9      -0.098729   0.632915  -0.155065  -0.169466   0.034411  -0.003445
     10      -0.432613  -0.273103  -0.203582  -0.188849   0.062002  -0.001501
     11       0.178474  -0.104206  -0.629568  -0.658197   0.154203   0.000348
     12      -0.689739   0.020677  -0.027406  -0.005844  -0.103209   0.001336
     13      -0.008680  -0.010853  -0.206332   0.014108  -0.758979  -0.010859
     14      -0.202504   0.017753   0.160359   0.018332   0.589350   0.009312
     15       0.066663   0.134975   0.002787   0.001248  -0.005764  -0.142114
     16       0.013502   0.015373   0.003793  -0.003139   0.010744  -0.784797
     17       0.010546   0.031147  -0.002219  -0.003727  -0.010681   0.599784


-----------
IR SPECTRUM
-----------

 Mode   freq       eps      Int      T**2         TX        TY        TZ
       cm**-1   L/(mol*cm) km/mol    a.u.
----------------------------------------------------------------------------
  6:    330.82   0.024500  123.81  0.023110  (-0.036938  0.093631  0.113926)
  7:   1069.66   0.017678   89.34  0.005157  ( 0.069171  0.017603  0.007924)
  8:   1106.46   0.007764   39.23  0.002190  ( 0.044614  0.013745  0.003208)
  9:   1170.78   0.000158    0.80  0.000042  ( 0.001572 -0.003971 -0.004876)
 10:   1363.44   0.005548   28.04  0.001270  (-0.034491 -0.007259 -0.005237)
 11:   1467.91   0.000332    1.68  0.000071  (-0.002237  0.005162  0.006241)
 12:   1473.82   0.001153    5.83  0.000244  ( 0.015085  0.001559  0.003772)
 13:   1493.29   0.001542    7.79  0.000322  (-0.013312 -0.011051  0.004790)
 14:   2960.01   0.013344   67.43  0.001407  ( 0.035990  0.001262  0.010485)
 15:   3010.19   0.016399   82.87  0.001700  (-0.009990  0.025349  0.030947)
 16:   3103.02   0.006114   30.90  0.000615  (-0.000257  0.019137 -0.015768)
 17:   3819.40   0.005174   26.15  0.000423  (-0.007788 -0.015856  0.010522)

* The epsilon (eps) is given for a Dirac delta lineshape.
** The dipole moment derivative (T) already includes vibrational overlap.

The first frequency considered to be a vibration is 6
The total number of vibrations considered is 12


--------------------------
THERMOCHEMISTRY AT 298.15K
--------------------------

Temperature         ...   298.15 K
Pressure            ...     1.00 atm
Total Mass          ...    32.04 AMU
Quasi RRHO          ...     True
Cut-Off Frequency   ...     1.00 cm^-1

Throughout the following assumptions are being made:
  (1) The electronic state is orbitally nondegenerate
  (2) There are no thermally accessible electronically excited states
  (3) Hindered rotations indicated by low frequency modes are not
      treated as such but are treated as vibrations and this may
      cause some error
  (4) All equations used are the standard statistical mechanics
      equations for an ideal gas
  (5) All vibrations are strictly harmonic

freq.     330.82  E(vib)   ...       0.24 
freq.    1069.66  E(vib)   ...       0.02 
freq.    1106.46  E(vib)   ...       0.02 
freq.    1170.78  E(vib)   ...       0.01 
freq.    1363.44  E(vib)   ...       0.01 
freq.    1467.91  E(vib)   ...       0.00 
freq.    1473.82  E(vib)   ...       0.00 
freq.    1493.29  E(vib)   ...       0.00 
freq.    2960.01  E(vib)   ...       0.00 
freq.    3010.19  E(vib)   ...       0.00 
freq.    3103.02  E(vib)   ...       0.00 
freq.    3819.40  E(vib)   ...       0.00 

------------
INNER ENERGY
------------

The inner energy is: U= E(el) + E(ZPE) + E(vib) + E(rot) + E(trans)
    E(el)   - is the total energy from the electronic structure calculation
              = E(kin-el) + E(nuc-el) + E(el-el) + E(nuc-nuc)
    E(ZPE)  - the the zero temperature vibrational energy from the frequency calculation
    E(vib)  - the the finite temperature correction to E(ZPE) due to population
              of excited vibrational states
    E(rot)  - is the rotational thermal energy
    E(trans)- is the translational thermal energy

Summary of contributions to the inner energy U:
Electronic energy                ...   -115.56575918 Eh
Zero point energy                ...      0.05095987 Eh      31.98 kcal/mol
Thermal vibrational correction   ...      0.00047909 Eh       0.30 kcal/mol
Thermal rotational correction    ...      0.00141627 Eh       0.89 kcal/mol
Thermal translational correction ...      0.00141627 Eh       0.89 kcal/mol
-----------------------------------------------------------------------
Total thermal energy                   -115.51148768 Eh


Summary of corrections to the electronic energy:
(perhaps to be used in another calculation)
Total thermal correction                  0.00331163 Eh       2.08 kcal/mol
Non-thermal (ZPE) correction              0.05095987 Eh      31.98 kcal/mol
-----------------------------------------------------------------------
Total correction                          0.05427150 Eh      34.06 kcal/mol


--------
ENTHALPY
--------

The enthalpy is H = U + kB*T
                kB is Boltzmann's constant
Total thermal energy              ...   -115.51148768 Eh 
Thermal Enthalpy correction       ...      0.00094421 Eh       0.59 kcal/mol
-----------------------------------------------------------------------
Total Enthalpy                    ...   -115.51054347 Eh


Note: Only C1 symmetry has been detected, increase convergence thresholds 
      if your molecule has a higher symmetry. Symmetry factor of 1.0 is   
      used for the rotational entropy correction. 
 

Note: Rotational entropy computed according to Herzberg 
Infrared and Raman Spectra, Chapter V,1, Van Nostrand Reinhold, 1945 
Point Group:  C1, Symmetry Number:   1  
Rotational constants in cm-1:     4.233641     0.831971     0.802537 

Vibrational entropy computed according to the QRRHO of S. Grimme
Chem.Eur.J. 2012 18 9955 using a reference frequency of 100.0 cm-1


-------
ENTROPY
-------

The entropy contributions are T*S = T*(S(el)+S(vib)+S(rot)+S(trans))
     S(el)   - electronic entropy
     S(vib)  - vibrational entropy
     S(rot)  - rotational entropy
     S(trans)- translational entropy
The entropies will be listed as multiplied by the temperature to get
units of energy

Electronic entropy                ...      0.00000000 Eh      0.00 kcal/mol
Vibrational entropy               ...      0.00071138 Eh      0.45 kcal/mol
Rotational entropy                ...      0.00902025 Eh      5.66 kcal/mol
Translational entropy             ...      0.01725935 Eh     10.83 kcal/mol
-----------------------------------------------------------------------
Final entropy term                ...      0.02699098 Eh     16.94 kcal/mol

In case the symmetry of your molecule has not been determined correctly
or in case you have a reason to use a different symmetry number we print 
out the resulting rotational entropy values for sn=1,12:

 non-linear molecules -----------------------------------
|  sn= 1 | S(rot)=       0.00902025 Eh      5.66 kcal/mol|
|  sn= 2 | S(rot)=       0.00836579 Eh      5.25 kcal/mol|
|  sn= 3 | S(rot)=       0.00798296 Eh      5.01 kcal/mol|
|  sn= 4 | S(rot)=       0.00771134 Eh      4.84 kcal/mol|
|  sn= 5 | S(rot)=       0.00750065 Eh      4.71 kcal/mol|
|  sn= 6 | S(rot)=       0.00732850 Eh      4.60 kcal/mol|
|  sn= 7 | S(rot)=       0.00718296 Eh      4.51 kcal/mol|
|  sn= 8 | S(rot)=       0.00705688 Eh      4.43 kcal/mol|
|  sn= 9 | S(rot)=       0.00694567 Eh      4.36 kcal/mol|
|  sn=10 | S(rot)=       0.00684619 Eh      4.30 kcal/mol|
|  sn=11 | S(rot)=       0.00675620 Eh      4.24 kcal/mol|
|  sn=12 | S(rot)=       0.00667405 Eh      4.19 kcal/mol|
 linear molecules ---------------------------------------
|  Dinfh | S(rot)=       0.00553351 Eh      3.47 kcal/mol|
|  Cinfv | S(rot)=       0.00618796 Eh      3.88 kcal/mol|
 --------------------------------------------------------


-------------------
GIBBS FREE ENERGY
-------------------

The Gibbs free energy is G = H - T*S

Total enthalpy                    ...   -115.51054347 Eh 
Total entropy correction          ...     -0.02699098 Eh    -16.94 kcal/mol
-----------------------------------------------------------------------
Final Gibbs free energy         ...   -115.53753445 Eh

For completeness - the Gibbs free energy minus the electronic energy
G-E(el)                           ...      0.02822473 Eh     17.71 kcal/mol


Maximum memory used throughout the entire PROP-calculation: 10.4 MB
[1770537590.690280] [node068:2120438:0]     ucp_context.c:1234 UCX  WARN  transport 'ib' is not available, please use one or more of: mm, posix, self, shm, sm, sysv, tcp
[1770537590.703457] [node068:2120439:0]     ucp_context.c:1234 UCX  WARN  transport 'ib' is not available, please use one or more of: mm, posix, self, shm, sm, sysv, tcp
[1770537590.730976] [node068:2120441:0]     ucp_context.c:1234 UCX  WARN  transport 'ib' is not available, please use one or more of: mm, posix, self, shm, sm, sysv, tcp
[1770537590.757274] [node068:2120445:0]     ucp_context.c:1234 UCX  WARN  transport 'ib' is not available, please use one or more of: mm, posix, self, shm, sm, sysv, tcp

--------------------------------
SUGGESTED CITATIONS FOR THIS RUN
--------------------------------

Below you find a list of papers that are relevant to this ORCA run
We neither can nor want to force you to cite these papers, but we appreciate if you do
You receive ORCA, which is the product of decades of hard work by many enthusiastic individuals, for free
The only thing we kindly ask in return is that you cite our papers,
We deeply appreciate it, if you show your appreciation for ORCA by not just citing the generic ORCA reference.

Please note that relegating all ORCA citations to the supporting information does *not* help us.
SI sections are not indexed - citations you put there will not count into any citation statistics
But we need these citations in order to attract the funding resources that allow us to do what we are doing

Therefore, if you are a happy ORCA user, please consider citing a few of the papers listed below in the main body of your paper

In addition to the list printed below, the program has created the file MeOH.bibtex that contains the list in bibtex format
You can import this file easily into all common literature databanks and citation aid programs


List of essential papers. We consider these as the minimum necessary citations

  1. Neese, F.
     Software update: the ORCA program system, version 6.0
     WIRES Comput. Molec. Sci. 2025 15(1), e70019
     doi.org/10.1002/wcms.7019

List of papers to cite with high priority. The work reported in these papers was absolutely
necessary for this run to complete.
Our perspective: the developers of density functionals and basis sets usually get cited in chemistry papers
Good! But without the algorithms to do something with them, the functionals or basis sets would not do anything.
Hence, in our opinion, the algorithm design and method developments papers are equally worthy of getting cited

  1. Neese, F.
     An improvement of the resolution of the identity approximation for the formation of the Coulomb matrix
     J. Comp. Chem. 2003 24(14), 1740-1747
     doi.org/10.1002/jcc.10318
  2. Neese, F.; Wennmohs, F.; Hansen, A.; Becker, U.
     Efficient, approximate and parallel Hartree-Fock and hybrid DFT calculations. A 'chain-of-spheres' algorithm for the Hartree-Fock exchange
     Chem. Phys. 2009 356(1-3), 98-109
     doi.org/10.1016/j.chemphys.2008.10.036
  3. Bykov, D.; Petrenko, T.; Izsak, R.; Kossmann, S.; Becker, U.; Valeev, E.; Neese, F.
     Efficient implementation of the analytic second derivatives of Hartree-Fock and hybrid DFT energies: a detailed analysis of different approximations
     Molec. Phys. 2015 113 , 1961-1977
     doi.org/10.1080/00268976.2015.1025114
  4. Helmich-Paris, B.; de Souza, B.; Neese, F.; Izsák, R.
     An improved chain of spheres for exchange algorithm
     J. Chem. Phys. 2021 155(10), 104109
     doi.org/10.1063/5.0058766
  5. Neese, F.
     The SHARK Integral Generation and Digestion System
     J. Comp. Chem. 2022 44(3), 381
     doi.org/10.1002/jcc.26942

List of suggested additional citations. These are papers that are important in the 'surrounding' of 
of this run, or papers that preceded the highly important papers. If you like your results we are grateful for a citation.

  1. Izsak, R.; Neese, F.
     An overlap fitted chain of spheres exchange method
     J. Chem. Phys. 2011 135 , 144105
     doi.org/10.1063/1.3646921
  2. Izsak, R.; Hansen, A.; Neese, F.
     The resolution of identity and chain of spheres approximations for the LPNO-CCSD singles Fock term
     Molec. Phys. 2012 110 , 2413-2417
     doi.org/10.1080/00268976.2012.687466
  3. Neese, F.
     The ORCA program system
     WIRES Comput. Molec. Sci. 2012 2(1), 73-78
     doi.org/10.1002/wcms.81
  4. Izsak, R.; Neese, F.; Klopper, W.
     Robust fitting techniques in the chain of spheres approximation to the Fock exchange: The role of the complementary space
     J. Chem. Phys. 2013 139 , 
     doi.org/10.1063/1.4819264
  5. Neese, F.
     Software update: the ORCA program system, version 4.0
     WIRES Comput. Molec. Sci. 2018 8(1), 1-6
     doi.org/10.1002/wcms.1327
  6. Neese, F.; Wennmohs, F.; Becker, U.; Riplinger, C.
     The ORCA quantum chemistry program package
     J. Chem. Phys. 2020 152(22), 224108
     doi.org/10.1063/5.0004608
  7. Neese, F.
     Software update: The ORCA program system—Version 5.0
     WIRES Comput. Molec. Sci. 2022 12(1), e1606
     doi.org/10.1002/wcms.1606

List of optional additional citations

  1. Neese, F.
     Approximate second-order SCF convergence for spin unrestricted wavefunctions
     Chem. Phys. Lett. 2000 325(1-3), 93-98
     doi.org/10.1016/s0009-2614(00)00662-x

Timings for individual modules:

Sum of individual times          ...       92.037 sec (=   1.534 min)
Startup calculation              ...       16.362 sec (=   0.273 min)  17.8 %
SCF iterations                   ...       35.753 sec (=   0.596 min)  38.8 %
Property integrals               ...       15.939 sec (=   0.266 min)  17.3 %
SCF Response                     ...        1.974 sec (=   0.033 min)   2.1 %
Property calculations            ...        4.586 sec (=   0.076 min)   5.0 %
SCF Gradient evaluation          ...       17.400 sec (=   0.290 min)  18.9 %
Geometry relaxation              ...        0.024 sec (=   0.000 min)   0.0 %
                             ****ORCA TERMINATED NORMALLY****
TOTAL RUN TIME: 0 days 0 hours 1 minutes 46 seconds 884 msec
