
                                 *****************
                                 * O   R   C   A *
                                 *****************

                                            #,                                       
                                            ###                                      
                                            ####                                     
                                            #####                                    
                                            ######                                   
                                           ########,                                 
                                     ,,################,,,,,                         
                               ,,#################################,,                 
                          ,,##########################################,,             
                       ,#########################################, ''#####,          
                    ,#############################################,,   '####,        
                  ,##################################################,,,,####,       
                ,###########''''           ''''###############################       
              ,#####''   ,,,,##########,,,,          '''####'''          '####       
            ,##' ,,,,###########################,,,                        '##       
           ' ,,###''''                  '''############,,,                           
         ,,##''                                '''############,,,,        ,,,,,,###''
      ,#''                                            '''#######################'''  
     '                                                          ''''####''''         
             ,#######,   #######,   ,#######,      ##                                
            ,#'     '#,  ##    ##  ,#'     '#,    #''#        ,####,    ,#,          
            ##       ##  ##   ,#'  ##            #'  '#       #'       ,# #          
            ##       ##  #######   ##           ,######,      #####,      #          
            '#,     ,#'  ##    ##  '#,     ,#' ,#      #,     #,   #      #          
             '#######'   ##     ##  '#######'  #'      '#     '####' #    #          



                #########################################################
                #                        -***-                          #
                #          Department of theory and spectroscopy        #
                #                                                       #
                #                      Frank Neese                      #
                #                                                       #
                #     Directorship, Architecture, Infrastructure        #
                #                    SHARK, DRIVERS                     #
                #        Core code/Algorithms in most modules           #
                #                                                       #
                #        Max Planck Institute fuer Kohlenforschung      #
                #                Kaiser Wilhelm Platz 1                 #
                #                 D-45470 Muelheim/Ruhr                 #
                #                      Germany                          #
                #                                                       #
                #                  All rights reserved                  #
                #                        -***-                          #
                #########################################################


                         Program Version 6.1.0  -  RELEASE   -
                                (GIT: $679e74b$)
                          ($2025-06-10 18:02:51 +0200$)


 With contributions from (in alphabetic order):
[Max-Planck-Institut fuer Kohlenforschung]                               
  Daniel Aravena         : Magnetic Suceptibility                        
  Michael Atanasov       : Ab Initio Ligand Field Theory (pilot matlab implementation)
  Alexander A. Auer      : GIAO ZORA, VPT2 properties, NMR spectrum      
  Ute Becker             : All parallelization in ORCA, NUMFREQ, NUMCALC 
  Giovanni Bistoni       : ED, misc. LED, open-shell LED, HFLD           
  Dmytro Bykov           : pre 5.0 version of the SCF Hessian            
  Marcos Casanova-Páez   : Triplet and SCS-CIS(D). UHF-(DLPNO)-IP/EA/STEOM-CCSD. UHF-CVS-IP/STEOM-CCSD   
  Vijay G. Chilkuri      : MRCI spin determinant printing, contributions to CSF-ICE 
  Pauline Colinet        : FMM embedding                                 
  Dipayan Datta          : RHF DLPNO-CCSD density                        
  Achintya Kumar Dutta   : EOM-CC, STEOM-CC                              
  Nicolas Foglia         : Exact transition moments, OPA infrastructure, MCD improvements    
  Dmitry Ganyushin       : Spin-Orbit,Spin-Spin,Magnetic field MRCI      
  Miquel Garcia-Rates    : C-PCM and meta-GGA Hessian, CCSD/C-PCM, Gaussian charge scheme 
  Tiago L. C. Gouveia    : GS-ROHF, GS-ROCIS                             
  Yang Guo               : DLPNO-NEVPT2, F12-NEVPT2, CIM, IAO-localization        
  Andreas Hansen         : Spin unrestricted coupled pair/coupled cluster methods 
  Ingolf Harden          : AUTO-CI MPn and infrastructure                
  Benjamin Helmich-Paris : MC-RPA, TRAH-(SCF,CASSCF), AVAS, COSX integrals, SCF dyn. polar., MC-PDFT, srDFT 
  Lee Huntington         : MR-EOM, pCC                                   
  Robert Izsak           : Overlap fitted RIJCOSX, COSX-SCS-MP3, EOM     
  Riya Kayal             : Wick's Theorem for AUTO-CI, AUTO-CI UHF-CCSDT 
  Emily Kempfer          : AUTO-CI RHF CISDT and CCSDT, approximate NEVPT4
  Christian Kollmar      : KDIIS, OOCD, Brueckner-CCSD(T), CCSD density, CASPT2, CASPT2-K, improved NEVPT2 
  Axel Koslowski         : Symmetry handling                             
  Simone Kossmann        : meta-GGA functionals, TD-DFT gradient, OOMP2, (MP2 Hessian; deprecated post 5.0) 
  Lucas Lang             : DCDCAS, Hyperfine gauge corrections, ICE-SOC+SSC
  Marvin Lechner         : AUTO-CI (C++ implementation), FIC-MRCC        
  Spencer Leger          : CASSCF response                               
  Dagmar Lenk            : GEPOL surface, SMD, ORCA-2-JSON               
  Dimitrios Liakos       : Extrapolation schemes; Compound Job, Property file
  Dimitrios Manganas     : Further ROCIS development; embedding schemes. LFT, Crystal Embedding 
  Dimitrios Pantazis     : SARC Basis sets                               
  Anastasios Papadopoulos: AUTO-CI, single reference methods and gradients 
  Taras Petrenko         : pre 6.0 DFT Hessian and TD-DFT gradient,  ECA, NRVS 
  Petra Pikulova         : Analytic Raman intensities                    
  Peter Pinski           : DLPNO-MP2, DLPNO-MP2 Gradient                 
  Shashank Vittal Rao    : ES-AILFT, MagRelax                            
  Christoph Reimann      : Effective Core Potentials                     
  Marius Retegan         : Local ZFS, SOC                                
  Christoph Riplinger    : Optimizer, TS searches, QM/MM, DLPNO-CCSD(T), (RO)-DLPNO pert. Triples 
  Michael Roemelt        : Original ROCIS implementation, recursive CI coupling coefficients
  Masaaki Saitow         : Open-shell DLPNO-CCSD energy and density      
  Barbara Sandhoefer     : DKH picture change effects                    
  Yorick L. A. Schmerwitz: GMF and freeze-and-release deltaSCF, NEB S-IDPP initial path                    
  Kantharuban Sivalingam : CASSCF convergence/infrastructure, NEVPT2, NEVPT3, NEVPT4(SD), FIC-MRCI and CEPA variants
  Bernardo de Souza      : ESD, SOC TD-DFT                               
  Georgi L. Stoychev     : AutoAux, RI-MP2 NMR, DLPNO-MP2 response, X2C  
  Van Anh Tran           : RI-MP2 g-tensors                              
  Willem Van den Heuvel  : Paramagnetic NMR                              
  Zikuan Wang            : NOTCH, Electric field optimization            
  Frank Wennmohs         : Technical directorship and infrastructure     
  Hang Xu                : AUTO-CI-Response properties                   
                                                                         
[FACCTs GmbH]                                                            
  Markus Bursch, Nicolas Foglia, Miquel Garcia-Rates, Ingolf Harden, Hagen Neugebauer, Anastasios Papadopoulos, 
  Christoph Riplinger, Bernardo de Souza, Georgi L. Stoychev                                                    
                                                                 
  APM, various basis sets, CI-OPT, improved COSX, DLPNO-Multilevel,           
  DOCKER, DRACO, updates on ESD, Fragmentator, GOAT, IRC, LR-CPCM, L-BFGS, MBIS, meta-GGA TD-DFT gradient, ML-optimized integration grids, 
  MM, NACMEs, nearIR, NEB, NEB-TS, NL-DFT gradient (VV10), 2- and 3-layer-ONIOM, interface openCOSMO-RS, QMMM,   
  Crystal-QMMM, RESP, rigid body optimization, SF, symmetry and pop. for TD-DFT, various functionals, SOLVATOR                                   
                                                                         
[Other institutions]                                                     
  V. Asgeirsson          : NEB                                           
  Christoph Bannwarth    : sTDA-DFT, sTD-DFT, PBEh-3c, B97-3c, D3        
  Giovanni Bistoni       : ETS/NOCV, ADLD/ADEX, COVALED                  
  Martin Brehm           : Molecular dynamics                            
  Ronald Cardenas        : ETS/NOCV                                      
  Martina Colucci        : COVALED                                       
  Sebastian Ehlert       : rSCAN, r2SCAN, r2SCAN-3c, D4, dhf basis sets  
  Marvin Friede          : D4 for Fr, Ra, Ac-Lr                          
  Lars Goerigk           : TD-DFT with DH, B97 family of functionals     
  Stefan Grimme          : VdW corrections, initial TS optimization, DFT functionals, gCP, sTDA/sTD-DF 
  Waldemar Hujo          : DFT-NL                                        
  H. Jonsson             : NEB                                           
  Holger Kruse           : gCP                                           
  Marcel Mueller         : wB97X-3c, vDZP basis set                      
  Hagen Neugebauer       : wr2SCAN, Native XTB                           
  Gianluca Regni         : ADLD/ADEX                                     
  Tobias Risthaus        : pre 6.0 range-separated hybrid DFT and stability analysis
  Lukas Wittmann         : regularized MP2, r2SCAN double-hybrids, wr2SCAN        
                                                                         
We gratefully acknowledge several colleagues who have allowed us to      
interface, adapt or use parts of their codes:                            
  Ed Valeev, F. Pavosevic, A. Kumar             : LibInt (2-el integral package), F12 methods 
  Garnet Chan, S. Sharma, J. Yang, R. Olivares  : DMRG                   
  Ulf Ekstrom                                   : XCFun DFT Library      
  Mihaly Kallay                                 : mrcc  (arbitrary order and MRCC methods)
  Frank Weinhold                                : gennbo (NPA and NBO analysis)           
  Simon Mueller                                 : openCOSMO-RS                            
  Christopher J. Cramer and Donald G. Truhlar   : smd solvation model                     
  S Lehtola, MJT Oliveira, MAL Marques          : LibXC Library                           
  Liviu Ungur et al                             : ANISO software                          


 Your calculation uses the libint2 library for the computation of 2-el integrals
 For citations please refer to: http://libint.valeyev.net

 Your ORCA version has been built with support for libXC version: 7.0.0
 For citations please refer to: https://libxc.gitlab.io

 This ORCA versions uses:
   CBLAS   interface :  Fast vector & matrix operations
   LAPACKE interface :  Fast linear algebra routines
   SCALAPACK package :  Parallel linear algebra routines
   Shared memory     :  Shared parallel matrices
   BLAS/LAPACK       :  OpenBLAS 0.3.29  USE64BITINT DYNAMIC_ARCH NO_AFFINITY Haswell SINGLE_THREADED
        Core in use  :  Haswell
   Copyright (c) 2011-2014, The OpenBLAS Project


  ***********************************
  * Starting time: Sun Feb  8 10:42:39 2026
  * Host name:     node213.cluster
  * Process ID:    2936883
  * Working dir.:  /data/scratch/56927819
  ***********************************

NOTE: MaxCore=1500 MB was set to SCF,MP2,MDCI,CIPSI,MRCI,RASCI and CIS
      => If you want to overwrite this, your respective input block should be placed after the MaxCore statement
Warning: RI is on but no J-basis has been assigned. Assigning Def2/J (nothing to worry about!)
================================================================================

----- Orbital basis set information -----
Your calculation utilizes the basis: def2-SVP
   F. Weigend and R. Ahlrichs, Phys. Chem. Chem. Phys. 7, 3297 (2005).

----- AuxJ basis set information -----
Your calculation utilizes the auxiliary basis: def2/J
   H-Rn: F. Weigend, Phys. Chem. Chem. Phys. 8, 1057 (2006).
   Fr-Lr: K. Eichkorn, F. Weigend, O. Treutler, R. Ahlrichs; Theor. Chem. Acc. 97, 119 (1997).

================================================================================
                                        WARNINGS
                       Please study these warnings very carefully!
================================================================================


WARNING: Geometry Optimization
  ===> : Switching off AutoStart
         For restart on a previous wavefunction, please use MOREAD

WARNING: Found frequency calculation in combination with XTB calculation
  ===> : Need to redirect dipole moment calculation to properties.out


================================================================================
                                       INPUT FILE
================================================================================
NAME = IPA_T.inp
|  1> ! b3lyp tightopt freq nearir
|  2> 
|  3> 
|  4>  %pal 
|  5>  nprocs 4 
|  6>  end 
|  7>  
|  8>  %maxcore 1500 
|  9>  
| 10>  * XYZ 0 1
| 11> C     -2.5932351872   -0.8890679560    1.3094586836
| 12> O     -1.1712091745   -0.9888189248    1.2986575522
| 13> C     -3.1815620781   -2.0848278307    0.5694300759
| 14> H     -0.8749911725   -0.8994002497    0.3754368477
| 15> H     -3.1802371417    0.3315009731   -0.3982130742
| 16> C     -3.0204369247    0.4353249673    0.6819107736
| 17> H     -3.9629312362    0.7807507151    1.1229384675
| 18> H     -2.7786801564   -2.1471778571   -0.4505394022
| 19> H     -2.9107223189   -0.9115950188    2.3587038791
| 20> H     -2.2584035646    1.2093448566    0.8276300402
| 21> H     -4.2731301508   -2.0290468592    0.5181076948
| 22> H     -2.8964524376   -3.0177078360    1.0742845291
| 23> *
| 24> 
| 25>                          ****END OF INPUT****
================================================================================

                       *****************************
                       * Geometry Optimization Run *
                       *****************************

Geometry optimization settings:
Update method            Update   .... BFGS
Choice of coordinates    CoordSys .... (2022) Redundant Internals
Initial Hessian          InHess   .... Almloef's Model
Max. no of cycles        MaxIter  .... 50

Convergence Tolerances:
Energy Change            TolE     ....  1.0000e-06 Eh
Max. Gradient            TolMAXG  ....  1.0000e-04 Eh/bohr
RMS Gradient             TolRMSG  ....  3.0000e-05 Eh/bohr
Max. Displacement        TolMAXD  ....  1.0000e-03 bohr
RMS Displacement         TolRMSD  ....  6.0000e-04 bohr
Strict Convergence                .... False

------------------------------------------------------------------------------
                        ORCA OPTIMIZATION COORDINATE SETUP
------------------------------------------------------------------------------

The optimization will be done in redundant internal coordinates (2022)
Making redundant internal coordinates   ...  (2022 redundants) done
Evaluating the initial hessian          ...  (Almloef) done
Evaluating the coordinates              ...  done
Calculating the B-matrix                .... done
Calculating the G-matrix                .... done
The number of degrees of freedom        ....   45

    -----------------------------------------------------------------
                    Redundant Internal Coordinates


    -----------------------------------------------------------------
         Definition                    Initial Value    Approx d2E/dq
    -----------------------------------------------------------------
      1. B(O   1,C   0)                  1.4256         0.491066   
      2. B(C   2,C   0)                  1.5243         0.381424   
      3. B(H   3,O   1)                  0.9737         0.494449   
      4. B(C   5,H   4)                  1.0968         0.351208   
      5. B(C   5,C   0)                  1.5265         0.378349   
      6. B(H   6,C   5)                  1.0964         0.351716   
      7. B(H   7,C   2)                  1.0984         0.349125   
      8. B(H   8,C   0)                  1.0965         0.351657   
      9. B(H   9,C   5)                  1.0959         0.352356   
     10. B(H  10,C   2)                  1.0942         0.354591   
     11. B(H  11,C   2)                  1.0984         0.349188   
     12. A(O   1,C   0,C   2)          109.0522         0.379833   
     13. A(O   1,C   0,H   8)          107.1367         0.335954   
     14. A(O   1,C   0,C   5)          109.6788         0.379300   
     15. A(C   5,C   0,H   8)          109.2798         0.323732   
     16. A(C   2,C   0,C   5)          111.8996         0.365439   
     17. A(C   2,C   0,H   8)          109.6758         0.324163   
     18. A(C   0,O   1,H   3)          107.7115         0.352648   
     19. A(C   0,C   2,H  10)          111.5805         0.324605   
     20. A(H  10,C   2,H  11)          108.8933         0.288740   
     21. A(H   7,C   2,H  11)          106.4626         0.288039   
     22. A(C   0,C   2,H  11)          110.0551         0.323788   
     23. A(H   7,C   2,H  10)          108.9801         0.288732   
     24. A(C   0,C   2,H   7)          110.7178         0.323778   
     25. A(H   6,C   5,H   9)          108.7674         0.288781   
     26. A(H   4,C   5,H   6)          107.5002         0.288633   
     27. A(H   4,C   5,H   9)          107.4040         0.288715   
     28. A(C   0,C   5,H   9)          111.3151         0.323838   
     29. A(C   0,C   5,H   6)          110.3977         0.323741   
     30. A(C   0,C   5,H   4)          111.3144         0.323664   
     31. D(H   3,O   1,C   0,C   5)    -57.1336         0.019044   
     32. D(H   3,O   1,C   0,H   8)   -175.6380         0.019044   
     33. D(H   3,O   1,C   0,C   2)     65.7260         0.019044   
     34. D(H   7,C   2,C   0,H   8)   -173.1936         0.011591   
     35. D(H   7,C   2,C   0,C   5)     65.3621         0.011591   
     36. D(H  10,C   2,C   0,C   5)    -56.2079         0.011591   
     37. D(H   7,C   2,C   0,O   1)    -56.1580         0.011591   
     38. D(H  10,C   2,C   0,H   8)     65.2364         0.011591   
     39. D(H  10,C   2,C   0,O   1)   -177.7279         0.011591   
     40. D(H   6,C   5,C   0,C   2)     88.7251         0.011414   
     41. D(H   6,C   5,C   0,O   1)   -150.1166         0.011414   
     42. D(H   4,C   5,C   0,H   8)   -152.2529         0.011414   
     43. D(H   4,C   5,C   0,C   2)    -30.5805         0.011414   
     44. D(H   6,C   5,C   0,H   8)    -32.9473         0.011414   
     45. D(H   4,C   5,C   0,O   1)     90.5778         0.011414   
    -----------------------------------------------------------------

Number of atoms                         .... 12
Number of degrees of freedom            .... 45


         *************************************************************
         *                GEOMETRY OPTIMIZATION CYCLE   1            *
         *************************************************************
---------------------------------
CARTESIAN COORDINATES (ANGSTROEM)
---------------------------------
  C     -2.593235   -0.889068    1.309459
  O     -1.171209   -0.988819    1.298658
  C     -3.181562   -2.084828    0.569430
  H     -0.874991   -0.899400    0.375437
  H     -3.180237    0.331501   -0.398213
  C     -3.020437    0.435325    0.681911
  H     -3.962931    0.780751    1.122938
  H     -2.778680   -2.147178   -0.450539
  H     -2.910722   -0.911595    2.358704
  H     -2.258404    1.209345    0.827630
  H     -4.273130   -2.029047    0.518108
  H     -2.896452   -3.017708    1.074285

----------------------------
CARTESIAN COORDINATES (A.U.)
----------------------------
  NO LB      ZA    FRAG     MASS         X           Y           Z
   0 C     6.0000    0    12.011   -4.900504   -1.680095    2.474518
   1 O     8.0000    0    15.999   -2.213265   -1.868597    2.454107
   2 C     6.0000    0    12.011   -6.012281   -3.939754    1.076067
   3 H     1.0000    0     1.008   -1.653494   -1.699620    0.709473
   4 H     1.0000    0     1.008   -6.009777    0.626446   -0.752514
   5 C     6.0000    0    12.011   -5.707799    0.822645    1.288625
   6 H     1.0000    0     1.008   -7.488855    1.475405    2.122046
   7 H     1.0000    0     1.008   -5.250945   -4.057578   -0.851396
   8 H     1.0000    0     1.008   -5.500468   -1.722665    4.457304
   9 H     1.0000    0     1.008   -4.267764    2.285331    1.563994
  10 H     1.0000    0     1.008   -8.075046   -3.834343    0.979082
  11 H     1.0000    0     1.008   -5.473502   -5.702641    2.030104

--------------------------------
INTERNAL COORDINATES (ANGSTROEM)
--------------------------------
 C      0   0   0     0.000000000000     0.00000000     0.00000000
 O      1   0   0     1.425561258246     0.00000000     0.00000000
 C      1   2   0     1.524340037102   109.05221440     0.00000000
 H      2   1   3     0.973692596964   107.71153776    65.72596867
 H      1   2   3     2.179564781707   107.57186884   266.59428050
 C      5   1   2     1.096805843215    40.72900789   260.97901647
 H      6   5   1     1.096412286159   107.50015158   238.98228461
 H      3   1   2     1.098425739356   110.71780776   303.84203725
 H      1   2   3     1.096458402145   107.13665576   118.63602097
 H      6   5   1     1.095917759504   107.40399941   122.08719720
 H      3   1   2     1.094196673785   111.58053295   182.27209101
 H      3   1   2     1.098376360958   110.05507451    61.26878616

---------------------------
INTERNAL COORDINATES (A.U.)
---------------------------
 C      0   0   0     0.000000000000     0.00000000     0.00000000
 O      1   0   0     2.693920365213     0.00000000     0.00000000
 C      1   2   0     2.880585205095   109.05221440     0.00000000
 H      2   1   3     1.840012346889   107.71153776    65.72596867
 H      1   2   3     4.118780528567   107.57186884   266.59428050
 C      5   1   2     2.072662665761    40.72900789   260.97901647
 H      6   5   1     2.071918950706   107.50015158   238.98228461
 H      3   1   2     2.075723825833   110.71780776   303.84203725
 H      1   2   3     2.072006097290   107.13665576   118.63602097
 H      6   5   1     2.070984430763   107.40399941   122.08719720
 H      3   1   2     2.067732050100   111.58053295   182.27209101
 H      3   1   2     2.075630514183   110.05507451    61.26878616

---------------------
BASIS SET INFORMATION
---------------------
There are 3 groups of distinct atoms

 Group   1 Type C   : 7s4p1d contracted to 3s2p1d pattern {511/31/1}
 Group   2 Type O   : 7s4p1d contracted to 3s2p1d pattern {511/31/1}
 Group   3 Type H   : 4s1p contracted to 2s1p pattern {31/1}

Atom   0C    basis set group =>   1
Atom   1O    basis set group =>   2
Atom   2C    basis set group =>   1
Atom   3H    basis set group =>   3
Atom   4H    basis set group =>   3
Atom   5C    basis set group =>   1
Atom   6H    basis set group =>   3
Atom   7H    basis set group =>   3
Atom   8H    basis set group =>   3
Atom   9H    basis set group =>   3
Atom  10H    basis set group =>   3
Atom  11H    basis set group =>   3
---------------------------------
AUXILIARY/J BASIS SET INFORMATION
---------------------------------
There are 3 groups of distinct atoms

 Group   1 Type C   : 12s5p4d2f1g contracted to 6s4p3d1f1g pattern {711111/2111/211/2/1}
 Group   2 Type O   : 12s5p4d2f1g contracted to 6s4p3d1f1g pattern {711111/2111/211/2/1}
 Group   3 Type H   : 5s2p1d contracted to 3s1p1d pattern {311/2/1}

Atom   0C    basis set group =>   1
Atom   1O    basis set group =>   2
Atom   2C    basis set group =>   1
Atom   3H    basis set group =>   3
Atom   4H    basis set group =>   3
Atom   5C    basis set group =>   1
Atom   6H    basis set group =>   3
Atom   7H    basis set group =>   3
Atom   8H    basis set group =>   3
Atom   9H    basis set group =>   3
Atom  10H    basis set group =>   3
Atom  11H    basis set group =>   3
[1770543759.770278] [node213:2936890:0]     ucp_context.c:1234 UCX  WARN  transport 'ib' is not available, please use one or more of: mm, posix, self, shm, sm, sysv, tcp
[1770543759.827055] [node213:2936891:0]     ucp_context.c:1234 UCX  WARN  transport 'ib' is not available, please use one or more of: mm, posix, self, shm, sm, sysv, tcp
[1770543759.895506] [node213:2936894:0]     ucp_context.c:1234 UCX  WARN  transport 'ib' is not available, please use one or more of: mm, posix, self, shm, sm, sysv, tcp
[1770543759.964283] [node213:2936897:0]     ucp_context.c:1234 UCX  WARN  transport 'ib' is not available, please use one or more of: mm, posix, self, shm, sm, sysv, tcp


           ************************************************************
           *        Program running with 4 parallel MPI-processes     *
           *              working on a common directory               *
           ************************************************************
------------------------------------------------------------------------------
                             ORCA STARTUP CALCULATIONS
                           -- RI-GTO INTEGRALS CHOSEN --
------------------------------------------------------------------------------
------------------------------------------------------------------------------
                   ___                                                        
                  /   \      - P O W E R E D   B Y -                         
                 /     \                                                     
                 |  |  |   _    _      __       _____    __    __             
                 |  |  |  | |  | |    /  \     |  _  \  |  |  /  |          
                  \  \/   | |  | |   /    \    | | | |  |  | /  /          
                 / \  \   | |__| |  /  /\  \   | |_| |  |  |/  /          
                |  |  |   |  __  | /  /__\  \  |    /   |      \           
                |  |  |   | |  | | |   __   |  |    \   |  |\   \          
                \     /   | |  | | |  |  |  |  | |\  \  |  | \   \       
                 \___/    |_|  |_| |__|  |__|  |_| \__\ |__|  \__/        
                                                                              
                      - O R C A' S   B I G   F R I E N D -                    
                                      &                                       
                       - I N T E G R A L  F E E D E R -                       
                                                                              
 v1 FN, 2020, v2 2021, v3 2022-2024                                           
------------------------------------------------------------------------------


----------------------
SHARK INTEGRAL PACKAGE
----------------------

Number of atoms                             ...     12
Number of basis functions                   ...     96
Number of shells                            ...     48
Maximum angular momentum                    ...      2
Integral batch strategy                     ... SHARK/LIBINT Hybrid
RI-J (if used) integral strategy            ... SPLIT-RIJ (Revised 2003 algorithm where possible)
Printlevel                                  ...      1
Contraction scheme used                     ... SEGMENTED contraction
Prescreening option                         ... SCHWARTZ
   Thresh                                   ... 1.000e-12
   Tcut                                     ... 1.000e-14
   Tpresel                                  ... 1.000e-14 
Coulomb Range Separation                    ... NOT USED
Exchange Range Separation                   ... NOT USED
Multipole approximations                    ... NOT USED
Finite Nucleus Model                        ... NOT USED
CABS basis                                  ... NOT available
Auxiliary Coulomb fitting basis             ... AVAILABLE
   # of basis functions in Aux-J            ...    284
   # of shells in Aux-J                     ...    100
   Maximum angular momentum in Aux-J        ...      4
Auxiliary J/K fitting basis                 ... NOT available
Auxiliary Correlation fitting basis         ... NOT available
Auxiliary 'external' fitting basis          ... NOT available

Checking pre-screening integrals            ... done (  0.0 sec) Dimension = 48
   => SHARK Basis and OBASIS are compatible. Storing Pre-screening
Shell pair information
Shell pair cut-off parameter TPreSel        ...   1.0e-14
Total number of shell pairs                 ...      1176
Shell pairs after pre-screening             ...      1173
Total number of primitive shell pairs       ...      3992
Primitive shell pairs kept                  ...      3400
          la=0 lb=0:    403 shell pairs
          la=1 lb=0:    448 shell pairs
          la=1 lb=1:    136 shell pairs
          la=2 lb=0:    112 shell pairs
          la=2 lb=1:     64 shell pairs
          la=2 lb=2:     10 shell pairs

Checking whether 4 symmetric matrices of dimension 96 fit in memory
:Max Core in MB      =   1500.00
 MB in use           =      4.79
 MB left             =   1495.21
 MB needed           =      0.14
 Data fit in memory  = YES
Calculating RI/J V-Matrix + Cholesky decomp.... done (  0.0 sec)
Calculating Nuclear repulsion               ... done (  0.0 sec) ENN=    134.830790309950 Eh

Diagonalization of the overlap matrix:
Smallest eigenvalue                        ... 2.191e-03
Time for diagonalization                   ...    0.001 sec
Threshold for overlap eigenvalues          ... 1.000e-07
Number of eigenvalues below threshold      ... 0
Time for construction of square roots      ...    0.000 sec
Total time needed                          ...    0.003 sec

-------------------
DFT GRID GENERATION
-------------------

General Integration Accuracy     IntAcc      ... 4.388
Radial Grid Type                 RadialGrid  ... OptM3 with GC (2021)
Angular Grid (max. ang.)         AngularGrid ... 4 (Lebedev-302)
Angular grid pruning method      GridPruning ... 4 (adaptive)
Weight generation scheme         WeightScheme... mBecke (2022)
Basis function cutoff            BFCut       ... 1.0000e-12
Integration weight cutoff        WCut        ... 1.0000e-14
Partially contracted basis set               ... off
Rotationally invariant grid construction     ... off
Angular grids for H and He will be reduced by one unit

Total number of grid points                  ...    50043
Total number of batches                      ...      789
Average number of points per batch           ...       63
Average number of grid points per atom       ...     4170

--------------------
COSX GRID GENERATION
--------------------

GRIDX 1
-------
General Integration Accuracy     IntAcc      ... 3.816
Radial Grid Type                 RadialGrid  ... OptM3 with GC (2021)
Angular Grid (max. ang.)         AngularGrid ... 1 (Lebedev-50)
Angular grid pruning method      GridPruning ... 4 (adaptive)
Weight generation scheme         WeightScheme... mBecke (2022)
Basis function cutoff            BFCut       ... 1.0000e-12
Integration weight cutoff        WCut        ... 1.0000e-14
Partially contracted basis set               ... on
Rotationally invariant grid construction     ... off
Angular grids for H and He will be reduced by one unit

Total number of grid points                  ...     6453
Total number of batches                      ...       59
Average number of points per batch           ...      109
Average number of grid points per atom       ...      538
UseSFitting                                  ... on

GRIDX 2
-------
General Integration Accuracy     IntAcc      ... 4.020
Radial Grid Type                 RadialGrid  ... OptM3 with GC (2021)
Angular Grid (max. ang.)         AngularGrid ... 2 (Lebedev-110)
Angular grid pruning method      GridPruning ... 4 (adaptive)
Weight generation scheme         WeightScheme... mBecke (2022)
Basis function cutoff            BFCut       ... 1.0000e-12
Integration weight cutoff        WCut        ... 1.0000e-14
Partially contracted basis set               ... on
Rotationally invariant grid construction     ... off
Angular grids for H and He will be reduced by one unit

Total number of grid points                  ...    13450
Total number of batches                      ...      111
Average number of points per batch           ...      121
Average number of grid points per atom       ...     1121
UseSFitting                                  ... on

GRIDX 3
-------
General Integration Accuracy     IntAcc      ... 4.338
Radial Grid Type                 RadialGrid  ... OptM3 with GC (2021)
Angular Grid (max. ang.)         AngularGrid ... 3 (Lebedev-194)
Angular grid pruning method      GridPruning ... 4 (adaptive)
Weight generation scheme         WeightScheme... mBecke (2022)
Basis function cutoff            BFCut       ... 1.0000e-12
Integration weight cutoff        WCut        ... 1.0000e-14
Partially contracted basis set               ... on
Rotationally invariant grid construction     ... off
Angular grids for H and He will be reduced by one unit

Total number of grid points                  ...    29480
Total number of batches                      ...      237
Average number of points per batch           ...      124
Average number of grid points per atom       ...     2457
UseSFitting                                  ... on
Grids setup in   0.4 sec
Initializing property integral containers    ... done (  0.0 sec)

SHARK setup successfully completed in   0.5 seconds

Maximum memory used throughout the entire STARTUP-calculation: 15.3 MB
[1770543761.913940] [node213:2936926:0]     ucp_context.c:1234 UCX  WARN  transport 'ib' is not available, please use one or more of: mm, posix, self, shm, sm, sysv, tcp
[1770543761.975343] [node213:2936928:0]     ucp_context.c:1234 UCX  WARN  transport 'ib' is not available, please use one or more of: mm, posix, self, shm, sm, sysv, tcp
[1770543762.043806] [node213:2936932:0]     ucp_context.c:1234 UCX  WARN  transport 'ib' is not available, please use one or more of: mm, posix, self, shm, sm, sysv, tcp
[1770543762.112944] [node213:2936936:0]     ucp_context.c:1234 UCX  WARN  transport 'ib' is not available, please use one or more of: mm, posix, self, shm, sm, sysv, tcp


           ************************************************************
           *        Program running with 4 parallel MPI-processes     *
           *              working on a common directory               *
           ************************************************************
-------------------------------------------------------------------------------
                                 ORCA GUESS
                   Start orbitals & Density for SCF / CASSCF
-------------------------------------------------------------------------------

------------
SCF SETTINGS
------------
Hamiltonian:
 Density Functional     Method          .... DFT(GTOs)
 Exchange Functional    Exchange        .... B88
   X-Alpha parameter    XAlpha          ....  0.666667
   Becke's b parameter  XBeta           ....  0.004200
 Correlation Functional Correlation     .... LYP
 LDA part of GGA corr.  LDAOpt          .... VWN-5
 Gradients option       PostSCFGGA      .... off
 Hybrid DFT is turned on
   Fraction HF Exchange ScalHFX         ....  0.200000
   Scaling of DF-GGA-X  ScalDFX         ....  0.720000
   Scaling of DF-GGA-C  ScalDFC         ....  0.810000
   Scaling of DF-LDA-C  ScalLDAC        ....  1.000000
   Perturbative correction              ....  0.000000
   NL short-range parameter             ....  4.800000
 RI-approximation to the Coulomb term is turned on
   Number of AuxJ basis functions       .... 284
   RIJ-COSX (HFX calculated with COS-X)).... on


General Settings:
 Integral files         IntName         .... IPA_T
 Hartree-Fock type      HFTyp           .... RHF
 Total Charge           Charge          ....    0
 Multiplicity           Mult            ....    1
 Number of Electrons    NEL             ....   34
 Basis Dimension        Dim             ....   96
 Nuclear Repulsion      ENuc            ....    134.8307903099 Eh

Convergence Acceleration:
 AO-DIIS                CNVDIIS         .... on
   Start iteration      DIISMaxIt       ....    12
   Startup error        DIISStart       ....  0.200000
   # of expansion vecs  DIISMaxEq       ....     5
   Bias factor          DIISBfac        ....   1.050
   Max. coefficient     DIISMaxC        ....  10.000
 MO-DIIS                CNVKDIIS        .... off
 Trust-Rad. Augm. Hess. CNVTRAH         .... auto
   Auto Start mean grad. ratio tolernc. ....  1.125000
   Auto Start start iteration           ....    50
   Auto Start num. interpolation iter.  ....    10
   Max. Number of Micro iterations      ....    24
   Max. Number of Macro iterations      .... Maxiter - #DIIS iter
   Number of Davidson start vectors     ....     2
   Converg. threshold    (grad. norm)   ....   2.000e-06
   Grad. Scal. Fac. for Micro threshold ....   0.100
   Minimum threshold for Micro iter.    ....   1.000e-02
   NR start threshold (gradient norm)   ....   1.000e-04
   Initial trust radius                 ....   0.400
   Minimum AH scaling param. (alpha)    ....   1.000
   Maximum AH scaling param. (alpha)    .... 1000.000
   Quad. conv. algorithm                .... NR
   White noise on init. David. guess    .... on
   Maximum white noise                  ....   0.010
   Pseudo random numbers                .... off
   Inactive MOs                         .... canonical
   Orbital update algorithm             .... Taylor
   Preconditioner                       .... Diag
   Full preconditioner red. dimension   ....   250
 SOSCF                 CNVSOSCF           .... on
   Start iteration     SOSCFMaxIt         ....   150
   Startup grad/error  SOSCFStart         ....  0.003300
   Hessian update      SOSCFHessUp        .... L-BFGS
   Autom. constraints  SOSCFAutoConstrain .... off
 Level Shifting         CNVShift        .... on
   Level shift para.    LevelShift      ....    0.2500
   Turn off err/grad.   ShiftErr        ....    0.0010
 Zerner damping         CNVZerner       .... off
 Static damping         CNVDamp         .... on
   Fraction old density DampFac         ....    0.7000
   Max. Damping (<1)    DampMax         ....    0.9800
   Min. Damping (>=0)   DampMin         ....    0.0000
   Turn off err/grad.   DampErr         ....    0.1000

SCF Procedure:
 Maximum # iterations   MaxIter         ....   125
 SCF integral mode      SCFMode         .... Direct
   Integral package                     .... SHARK and LIBINT hybrid scheme
 Reset frequency        DirectResetFreq ....    20
 Integral Threshold     Thresh          ....  1.000e-12 Eh
 Primitive CutOff       TCut            ....  1.000e-14 Eh

Convergence Tolerance:
 Convergence Check Mode ConvCheckMode   .... Total+1el-Energy
 Convergence forced     ConvForced      .... 0
 Energy Change          TolE            ....  1.000e-09 Eh
 1-El. energy change                    ....  1.000e-06 Eh
 Orbital Gradient       TolG            ....  2.000e-06
 Orbital Rotation angle TolX            ....  2.000e-06
 DIIS Error             TolErr          ....  1.000e-08

------------------------------
INITIAL GUESS: MODEL POTENTIAL
------------------------------
Loading Hartree-Fock densities                     ... done
Calculating cut-offs                               ... done
Initializing the effective Hamiltonian             ... done
Setting up the integral package (SHARK)            ... done
Starting the Coulomb interaction                   ... done (   0.0 sec)
Making the grid                                    ... done (   0.1 sec)
Mapping shells                                     ... done
Starting the XC term evaluation                    ... done (   0.0 sec)
  promolecular density results
     # of electrons  =     33.990710787
     EX              =    -25.988415935
     EC              =     -1.104707785
     EX+EC           =    -27.093123720
Transforming the Hamiltonian                       ... done (   0.0 sec)
Diagonalizing the Hamiltonian                      ... done (   0.0 sec)
Back transforming the eigenvectors                 ... done (   0.0 sec)
Now organizing SCF variables                       ... done
                      ------------------
                      INITIAL GUESS DONE (   0.1 sec)
                      ------------------
             **** ENERGY FILE WAS UPDATED (IPA_T.en.tmp) ****
Finished Guess after   0.7 sec
Maximum memory used throughout the entire GUESS-calculation: 7.2 MB
[1770543763.725089] [node213:2936969:0]     ucp_context.c:1234 UCX  WARN  transport 'ib' is not available, please use one or more of: mm, posix, self, shm, sm, sysv, tcp
[1770543763.783565] [node213:2936971:0]     ucp_context.c:1234 UCX  WARN  transport 'ib' is not available, please use one or more of: mm, posix, self, shm, sm, sysv, tcp
[1770543763.851397] [node213:2936974:0]     ucp_context.c:1234 UCX  WARN  transport 'ib' is not available, please use one or more of: mm, posix, self, shm, sm, sysv, tcp
[1770543763.920151] [node213:2936977:0]     ucp_context.c:1234 UCX  WARN  transport 'ib' is not available, please use one or more of: mm, posix, self, shm, sm, sysv, tcp


           ************************************************************
           *        Program running with 4 parallel MPI-processes     *
           *              working on a common directory               *
           ************************************************************

-------------------------------------------------------------------------------------------
                                      ORCA LEAN-SCF
                              memory conserving SCF solver
-------------------------------------------------------------------------------------------

----------------------------------------D-I-I-S--------------------------------------------
Iteration    Energy (Eh)           Delta-E    RMSDP     MaxDP     DIISErr   Damp  Time(sec)
-------------------------------------------------------------------------------------------
               ***  Starting incremental Fock matrix formation  ***
    1    -193.9146832329299741     0.00e+00  9.82e-03  7.97e-02  2.54e-01  0.700   0.4
    2    -193.9949258264080640    -8.02e-02  6.79e-03  4.96e-02  1.11e-01  0.700   0.3
                               ***Turning on AO-DIIS***
    3    -194.0268328569985670    -3.19e-02  2.55e-03  1.51e-02  3.52e-02  0.700   0.3
    4    -194.0453696303832771    -1.85e-02  4.09e-03  2.21e-02  1.84e-02  0.000   0.3
    5    -194.0858371597207110    -4.05e-02  8.12e-04  4.34e-03  5.89e-03  0.000   0.3
                              *** Initializing SOSCF ***
---------------------------------------S-O-S-C-F--------------------------------------
Iteration    Energy (Eh)           Delta-E    RMSDP     MaxDP     MaxGrad    Time(sec)
--------------------------------------------------------------------------------------
    6    -194.0860387884144984    -2.02e-04  3.40e-04  1.86e-03  2.62e-03     0.3
               *** Restarting incremental Fock matrix formation ***
    7    -194.0860914895951055    -5.27e-05  2.05e-04  1.05e-03  2.24e-04     0.4
    8    -194.0860913988422567     9.08e-08  6.96e-05  5.70e-04  3.20e-04     0.4
    9    -194.0860935443498079    -2.15e-06  2.82e-05  1.57e-04  3.95e-05     0.4
   10    -194.0860935324244565     1.19e-08  1.16e-05  7.70e-05  4.27e-05     0.4
   11    -194.0860935820638815    -4.96e-08  1.97e-06  1.04e-05  2.28e-06     0.4
   12    -194.0860935820895179    -2.56e-11  6.67e-07  4.25e-06  1.21e-06     0.3
                 **** Energy Check signals convergence ****

               *****************************************************
               *                     SUCCESS                       *
               *           SCF CONVERGED AFTER  12 CYCLES          *
               *****************************************************

Recomputing exchange energy using gridx3       ... done (    0.571 sec)
Old exchange energy                            :     -5.320639896 Eh
New exchange energy                            :     -5.320679649 Eh
Exchange energy change after final integration :     -0.000039753 Eh
Total energy after final integration           :   -194.086133336 Eh
             **** ENERGY FILE WAS UPDATED (IPA_T.en.tmp) ****

----------------
TOTAL SCF ENERGY
----------------

Total Energy       :       -194.08613333554629 Eh           -5281.35219 eV

Components:
Nuclear Repulsion  :        134.83079030994975 Eh            3668.93233 eV
Electronic Energy  :       -328.91688389215108 Eh           -8950.28343 eV
One Electron Energy:       -529.45198518730899 Eh          -14407.12096 eV
Two Electron Energy:        200.53510129515792 Eh            5456.83753 eV

Virial components:
Potential Energy   :       -386.27604625999567 Eh          -10511.10559 eV
Kinetic Energy     :        192.18991292444937 Eh            5229.75341 eV
Virial Ratio       :          2.00986638883510

DFT components:
N(Alpha)           :       16.999977633918 electrons
N(Beta)            :       16.999977633918 electrons
N(Total)           :       33.999955267835 electrons
E(X)               :      -21.102065042842 Eh       
E(C)               :       -1.311828023692 Eh       
E(XC)              :      -22.413893066533 Eh       

---------------
SCF CONVERGENCE
---------------

  Last Energy change         ...    2.5636e-11  Tolerance :   1.0000e-09
  Last MAX-Density change    ...    4.2454e-06  Tolerance :   1.0000e-08
  Last RMS-Density change    ...    6.6726e-07  Tolerance :   1.0000e-09
  Last DIIS Error            ...    2.6210e-03  Tolerance :   1.0000e-08
  Last Orbital Gradient      ...    1.2137e-06  Tolerance :   2.0000e-06
  Last Orbital Rotation      ...    1.0710e-06  Tolerance :   2.0000e-06


----------------
ORBITAL ENERGIES
----------------

  NO   OCC          E(Eh)            E(eV) 
   0   2.0000     -19.114946      -520.1441 
   1   2.0000     -10.228048      -278.3193 
   2   2.0000     -10.174517      -276.8627 
   3   2.0000     -10.173586      -276.8373 
   4   2.0000      -0.994430       -27.0598 
   5   2.0000      -0.757484       -20.6122 
   6   2.0000      -0.680393       -18.5144 
   7   2.0000      -0.591528       -16.0963 
   8   2.0000      -0.474215       -12.9040 
   9   2.0000      -0.465060       -12.6549 
  10   2.0000      -0.424573       -11.5532 
  11   2.0000      -0.406019       -11.0483 
  12   2.0000      -0.389897       -10.6096 
  13   2.0000      -0.356614        -9.7040 
  14   2.0000      -0.350439        -9.5359 
  15   2.0000      -0.312173        -8.4947 
  16   2.0000      -0.260377        -7.0852 
  17   0.0000       0.050490         1.3739 
  18   0.0000       0.086063         2.3419 
  19   0.0000       0.106558         2.8996 
  20   0.0000       0.110045         2.9945 
  21   0.0000       0.126945         3.4544 
  22   0.0000       0.136242         3.7073 
  23   0.0000       0.146552         3.9879 
  24   0.0000       0.162192         4.4135 
  25   0.0000       0.225857         6.1459 
  26   0.0000       0.231966         6.3121 
  27   0.0000       0.255790         6.9604 
*Only the first 10 virtual orbitals were printed.

                    ********************************
                    * MULLIKEN POPULATION ANALYSIS *
                    ********************************

-----------------------
MULLIKEN ATOMIC CHARGES
-----------------------
   0 C :    0.092258
   1 O :   -0.326650
   2 C :    0.033608
   3 H :    0.156360
   4 H :   -0.005550
   5 C :    0.017337
   6 H :    0.007737
   7 H :   -0.008352
   8 H :   -0.001276
   9 H :    0.014995
  10 H :    0.004102
  11 H :    0.015431
Sum of atomic charges:   -0.0000000

--------------------------------
MULLIKEN REDUCED ORBITAL CHARGES
--------------------------------
  0 C s       :     3.063178  s :     3.063178
      pz      :     1.055205  p :     2.772658
      px      :     0.743990
      py      :     0.973462
      dz2     :     0.013856  d :     0.071906
      dxz     :     0.011649
      dyz     :     0.008194
      dx2y2   :     0.020854
      dxy     :     0.017352

  1 O s       :     3.740352  s :     3.740352
      pz      :     1.364659  p :     4.573594
      px      :     1.314319
      py      :     1.894616
      dz2     :     0.005119  d :     0.012704
      dxz     :     0.002166
      dyz     :     0.000801
      dx2y2   :     0.003002
      dxy     :     0.001617

  2 C s       :     2.980869  s :     2.980869
      pz      :     0.991588  p :     2.957515
      px      :     0.976130
      py      :     0.989797
      dz2     :     0.007370  d :     0.028009
      dxz     :     0.003150
      dyz     :     0.005922
      dx2y2   :     0.008551
      dxy     :     0.003015

  3 H s       :     0.776599  s :     0.776599
      pz      :     0.031491  p :     0.067041
      px      :     0.015987
      py      :     0.019563

  4 H s       :     0.981863  s :     0.981863
      pz      :     0.013671  p :     0.023687
      px      :     0.005622
      py      :     0.004394

  5 C s       :     2.984654  s :     2.984654
      pz      :     0.989654  p :     2.970644
      px      :     1.005419
      py      :     0.975570
      dz2     :     0.008904  d :     0.027365
      dxz     :     0.002913
      dyz     :     0.003828
      dx2y2   :     0.004765
      dxy     :     0.006956

  6 H s       :     0.968657  s :     0.968657
      pz      :     0.006471  p :     0.023606
      px      :     0.011637
      py      :     0.005499

  7 H s       :     0.985011  s :     0.985011
      pz      :     0.012737  p :     0.023340
      px      :     0.006041
      py      :     0.004562

  8 H s       :     0.981145  s :     0.981145
      pz      :     0.013323  p :     0.020131
      px      :     0.002652
      py      :     0.004157

  9 H s       :     0.961835  s :     0.961835
      pz      :     0.005128  p :     0.023170
      px      :     0.009449
      py      :     0.008594

 10 H s       :     0.972443  s :     0.972443
      pz      :     0.004879  p :     0.023455
      px      :     0.014058
      py      :     0.004519

 11 H s       :     0.961512  s :     0.961512
      pz      :     0.006641  p :     0.023056
      px      :     0.005474
      py      :     0.010941



                     *******************************
                     * LOEWDIN POPULATION ANALYSIS *
                     *******************************

----------------------
LOEWDIN ATOMIC CHARGES
----------------------
   0 C :    0.060304
   1 O :   -0.146661
   2 C :   -0.064658
   3 H :    0.071866
   4 H :    0.017313
   5 C :   -0.070721
   6 H :    0.026044
   7 H :    0.016127
   8 H :    0.018355
   9 H :    0.024893
  10 H :    0.021984
  11 H :    0.025155

-------------------------------
LOEWDIN REDUCED ORBITAL CHARGES
-------------------------------
  0 C s       :     2.844908  s :     2.844908
      pz      :     1.068248  p :     2.937947
      px      :     0.833978
      py      :     1.035722
      dz2     :     0.031291  d :     0.156840
      dxz     :     0.022924
      dyz     :     0.020127
      dx2y2   :     0.044960
      dxy     :     0.037538

  1 O s       :     3.456920  s :     3.456920
      pz      :     1.453638  p :     4.666019
      px      :     1.359998
      py      :     1.852383
      dz2     :     0.010666  d :     0.023722
      dxz     :     0.004193
      dyz     :     0.000489
      dx2y2   :     0.005700
      dxy     :     0.002674

  2 C s       :     2.849145  s :     2.849145
      pz      :     1.050384  p :     3.143342
      px      :     1.052872
      py      :     1.040087
      dz2     :     0.017950  d :     0.072171
      dxz     :     0.008258
      dyz     :     0.015430
      dx2y2   :     0.022259
      dxy     :     0.008274

  3 H s       :     0.752221  s :     0.752221
      pz      :     0.087858  p :     0.175914
      px      :     0.036656
      py      :     0.051400

  4 H s       :     0.917375  s :     0.917375
      pz      :     0.039129  p :     0.065313
      px      :     0.013568
      py      :     0.012615

  5 C s       :     2.849006  s :     2.849006
      pz      :     1.054753  p :     3.150926
      px      :     1.064955
      py      :     1.031218
      dz2     :     0.022571  d :     0.070788
      dxz     :     0.007519
      dyz     :     0.009624
      dx2y2   :     0.012260
      dxy     :     0.018814

  6 H s       :     0.908374  s :     0.908374
      pz      :     0.016671  p :     0.065582
      px      :     0.032816
      py      :     0.016095

  7 H s       :     0.919212  s :     0.919212
      pz      :     0.036175  p :     0.064660
      px      :     0.015539
      py      :     0.012946

  8 H s       :     0.918952  s :     0.918952
      pz      :     0.039676  p :     0.062693
      px      :     0.010265
      py      :     0.012752

  9 H s       :     0.909331  s :     0.909331
      pz      :     0.012883  p :     0.065776
      px      :     0.025902
      py      :     0.026991

 10 H s       :     0.912202  s :     0.912202
      pz      :     0.012539  p :     0.065814
      px      :     0.040258
      py      :     0.013018

 11 H s       :     0.910022  s :     0.910022
      pz      :     0.017900  p :     0.064823
      px      :     0.013811
      py      :     0.033113



                      *****************************
                      * MAYER POPULATION ANALYSIS *
                      *****************************

  NA   - Mulliken gross atomic population
  ZA   - Total nuclear charge
  QA   - Mulliken gross atomic charge
  VA   - Mayer's total valence
  BVA  - Mayer's bonded valence
  FA   - Mayer's free valence

  ATOM       NA         ZA         QA         VA         BVA        FA
  0 C      5.9077     6.0000     0.0923     4.2010     4.2010    -0.0000
  1 O      8.3267     8.0000    -0.3267     2.0615     2.0615     0.0000
  2 C      5.9664     6.0000     0.0336     3.9541     3.9541    -0.0000
  3 H      0.8436     1.0000     0.1564     1.0211     1.0211     0.0000
  4 H      1.0055     1.0000    -0.0055     0.9991     0.9991    -0.0000
  5 C      5.9827     6.0000     0.0173     3.9469     3.9469    -0.0000
  6 H      0.9923     1.0000     0.0077     0.9886     0.9886     0.0000
  7 H      1.0084     1.0000    -0.0084     1.0016     1.0016    -0.0000
  8 H      1.0013     1.0000    -0.0013     0.9703     0.9703     0.0000
  9 H      0.9850     1.0000     0.0150     1.0078     1.0078    -0.0000
 10 H      0.9959     1.0000     0.0041     0.9880     0.9880     0.0000
 11 H      0.9846     1.0000     0.0154     0.9938     0.9938     0.0000

  Mayer bond orders larger than 0.100000
B(  0-C ,  1-O ) :   1.0038 B(  0-C ,  2-C ) :   1.0814 B(  0-C ,  5-C ) :   1.0768 
B(  0-C ,  8-H ) :   0.9320 B(  1-O ,  3-H ) :   0.9819 B(  2-C ,  7-H ) :   0.9538 
B(  2-C , 10-H ) :   0.9578 B(  2-C , 11-H ) :   0.9634 B(  4-H ,  5-C ) :   0.9631 
B(  5-C ,  6-H ) :   0.9575 B(  5-C ,  9-H ) :   0.9625 

-------
TIMINGS
-------

Total SCF time: 0 days 0 hours 0 min 5 sec 

Total time                  ....       5.658 sec
Sum of individual times     ....       5.314 sec  ( 93.9%)

SCF preparation             ....       0.569 sec  ( 10.1%)
Fock matrix formation       ....       4.570 sec  ( 80.8%)
  Startup                   ....       0.010 sec  (  0.2% of F)
  Split-RI-J                ....       0.330 sec  (  7.2% of F)
  Chain of spheres X        ....       3.238 sec  ( 70.9% of F)
  XC integration            ....       1.122 sec  ( 24.6% of F)
    XC Preparation          ....       0.000 sec  (  0.0% of XC)
    Basis function eval.    ....       0.430 sec  ( 38.4% of XC)
    Density eval.           ....       0.205 sec  ( 18.3% of XC)
    XC-Functional eval.     ....       0.081 sec  (  7.2% of XC)
    XC-Potential eval.      ....       0.272 sec  ( 24.2% of XC)
Diagonalization             ....       0.000 sec  (  0.0%)
Density matrix formation    ....       0.039 sec  (  0.7%)
Total Energy calculation    ....       0.007 sec  (  0.1%)
Population analysis         ....       0.019 sec  (  0.3%)
Orbital Transformation      ....       0.026 sec  (  0.5%)
Orbital Orthonormalization  ....       0.000 sec  (  0.0%)
DIIS solution               ....       0.054 sec  (  0.9%)
SOSCF solution              ....       0.031 sec  (  0.5%)
Finished LeanSCF after   5.7 sec

Maximum memory used throughout the entire LEANSCF-calculation: 9.0 MB
[1770543770.541823] [node213:2937031:0]     ucp_context.c:1234 UCX  WARN  transport 'ib' is not available, please use one or more of: mm, posix, self, shm, sm, sysv, tcp
[1770543770.599520] [node213:2937032:0]     ucp_context.c:1234 UCX  WARN  transport 'ib' is not available, please use one or more of: mm, posix, self, shm, sm, sysv, tcp
[1770543770.668394] [node213:2937035:0]     ucp_context.c:1234 UCX  WARN  transport 'ib' is not available, please use one or more of: mm, posix, self, shm, sm, sysv, tcp
[1770543770.736220] [node213:2937038:0]     ucp_context.c:1234 UCX  WARN  transport 'ib' is not available, please use one or more of: mm, posix, self, shm, sm, sysv, tcp


           ************************************************************
           *        Program running with 4 parallel MPI-processes     *
           *              working on a common directory               *
           ************************************************************

------------------------------------------------------------------------------
                         ORCA PROPERTY INTEGRAL CALCULATIONS
------------------------------------------------------------------------------

GBWName                                   ... IPA_T.gbw
Number of atoms                           ...     12
Number of basis functions                 ...     96
Max core memory                           ...   1500 MB

Dipole integrals                          ... YES
Quadrupole integrals                      ...  NO
Linear momentum integrals                 ...  NO
Angular momentum integrals                ...  NO
Higher moments length integrals           ...  NO
Higher moments velocity integrals         ...  NO
Kinetic energy integrals                  ...  NO
GIAO right hand sides                     ...  NO
GIAO dipole derivative integrals          ...  NO
SOC integrals                             ...  NO
EPR diamagnetic integrals (GIAO)          ...  NO
EPR gauge integrals                       ...  NO
Field gradient integrals                  ...  NO (   0 nuclei)
Spin-dipole/Fermi contact integrals       ...  NO (   0 nuclei)
Contact density integrals                 ...  NO (   0 nuclei)
Nucleus-orbit integrals                   ...  NO (   0 nuclei)
Geometric perturbations                   ...  NO (  12 nuclei)

Choice of electric origin   ... Center of mass
Position of electric origin ... ( -4.6444, -1.6681,  1.7926) 
Choice of magnetic origin   ... GIAO
Position of magnetic origin ... (  0.0000,  0.0000,  0.0000) 

Calculating integrals                     ... Electric Dipole (Length)     done (  0.0 sec)

Property integrals calculated in   0.0 sec

Maximum memory used throughout the entire PROPINT-calculation: 7.4 MB

-------------------------   --------------------
FINAL SINGLE POINT ENERGY      -194.086133335546
-------------------------   --------------------

[1770543772.211477] [node213:2937059:0]     ucp_context.c:1234 UCX  WARN  transport 'ib' is not available, please use one or more of: mm, posix, self, shm, sm, sysv, tcp
[1770543772.271827] [node213:2937063:0]     ucp_context.c:1234 UCX  WARN  transport 'ib' is not available, please use one or more of: mm, posix, self, shm, sm, sysv, tcp
[1770543772.340873] [node213:2937069:0]     ucp_context.c:1234 UCX  WARN  transport 'ib' is not available, please use one or more of: mm, posix, self, shm, sm, sysv, tcp
[1770543772.409461] [node213:2937074:0]     ucp_context.c:1234 UCX  WARN  transport 'ib' is not available, please use one or more of: mm, posix, self, shm, sm, sysv, tcp


           ************************************************************
           *        Program running with 4 parallel MPI-processes     *
           *              working on a common directory               *
           ************************************************************
------------------------------------------------------------------------------
                         ORCA SCF GRADIENT CALCULATION
------------------------------------------------------------------------------

Nuc. rep. gradient        (SHARK) ... done (  0.0 sec)
HCore & Overlap gradient  (SHARK) ... done (  0.0 sec)
Split-RIJ-J gradient      (SHARK) ... done (  0.1 sec)
done (  2.8 sec)
XC gradient                       ... done (  0.6 sec)

------------------
CARTESIAN GRADIENT
------------------

   1   C   :   -0.011465923   -0.001320928    0.017007916
   2   O   :   -0.003980997    0.001291893   -0.002619251
   3   C   :   -0.000063373    0.003932101   -0.007404905
   4   H   :    0.003071030    0.001094975   -0.006043029
   5   H   :    0.000039531    0.000259043    0.004935358
   6   C   :    0.006651285   -0.001261566   -0.001035913
   7   H   :    0.003980391   -0.003430271    0.000677944
   8   H   :    0.000448258   -0.002613752    0.004184386
   9   H   :   -0.003389822    0.000798580   -0.004974715
  10   H   :   -0.001682235   -0.001695292   -0.004565320
  11   H   :    0.005639288    0.000974462    0.001466999
  12   H   :    0.000752566    0.001970756   -0.001629471

Difference to translation invariance:
           :    0.0000000001   -0.0000000000    0.0000000001

Difference to rotation invariance:
           :   -0.0000694748   -0.0002023649    0.0000431594

Norm of the Cartesian gradient     ...    0.0281723110
RMS gradient                       ...    0.0046953852
MAX gradient                       ...    0.0170079160

-------
TIMINGS
-------

Total SCF gradient time     ....        3.617 sec

Densities                   ....       0.000 sec  (  0.0%)
One electron gradient       ....       0.020 sec  (  0.6%)
RI-J Coulomb gradient       ....       0.136 sec  (  3.8%)
COSX gradient               ....       2.814 sec  ( 77.8%)
XC gradient                 ....       0.645 sec  ( 17.8%)

Maximum memory used throughout the entire SCFGRAD-calculation: 11.5 MB
------------------------------------------------------------------------------
                         ORCA GEOMETRY RELAXATION STEP
------------------------------------------------------------------------------

Reading the OPT-File                    .... done
Getting information on internals        .... done
Copying old internal coords+grads       .... done
Making the new internal coordinates     .... (2022 redundants) done
Validating the new internal coordinates .... (2022 redundants) done
Calculating the B-matrix                .... done
Calculating the G,G- and P matrices     .... done
Transforming gradient to internals      .... done
Projecting the internal gradient        .... done
Number of atoms                         ....  12
Number of internal coordinates          ....  45
Current Energy                          ....  -194.086133336 Eh
Current gradient norm                   ....     0.028172311 Eh/bohr
Maximum allowed component of the step   ....  0.300
Current trust radius                    ....  0.300
Evaluating the initial hessian          ....  (Almloef) done
Projecting the Hessian                  .... done
Forming the augmented Hessian           .... done
Diagonalizing the augmented Hessian     .... done
Last element of RFO vector              ....  0.955545406
Lowest eigenvalues of augmented Hessian:
 -0.003532247  0.011577275  0.012596443  0.019062026  0.101926445
Length of the computed step             ....  0.308560940
Warning: the length of the step is outside the trust region - taking restricted step instead
The input lambda is                     ....     0.010414
   iter:   5  x=    0.004208  g=  289.885310 f(x)=     0.649414
   iter:  10  x=   -0.004031  g=    9.999589 f(x)=     0.000291
The output lambda is                    ....    -0.004031 (13 iterations)
The final length of the internal step   ....  0.300000000
Converting the step to Cartesian space:
 Initial RMS(Int)=    0.0447213595
Transforming coordinates:
 Iter   0:  RMS(Cart)=    0.0677820269 RMS(Int)=    0.9294526416
 Iter   5:  RMS(Cart)=    0.0000002600 RMS(Int)=    0.0000002042
done
Storing new coordinates                 .... done

                                .--------------------.
          ----------------------|Geometry convergence|-------------------------
          Item                value                   Tolerance       Converged
          ---------------------------------------------------------------------
          RMS gradient        0.0034157051            0.0000300000      NO
          MAX gradient        0.0078422900            0.0001000000      NO
          RMS step            0.0447213595            0.0006000000      NO
          MAX step            0.1395059548            0.0010000000      NO
          -------------------------------------------------------------------------
          ........................................................
          Max(Bonds)      0.0109      Max(Angles)    2.02
          Max(Dihed)        7.99      Max(Improp)    0.00
          ---------------------------------------------------------------------

The optimization has not yet converged - more geometry cycles are needed


    ---------------------------------------------------------------------------
                         Redundant Internal Coordinates
                            (Angstroem and degrees)

        Definition                    Value    dE/dq     Step     New-Value
    ----------------------------------------------------------------------------
     1. B(O   1,C   0)                1.4256 -0.001008  0.0011    1.4266   
     2. B(C   2,C   0)                1.5243 -0.004318  0.0059    1.5303   
     3. B(H   3,O   1)                0.9737  0.006775 -0.0072    0.9665   
     4. B(C   5,H   4)                1.0968 -0.004894  0.0073    1.1041   
     5. B(C   5,C   0)                1.5265 -0.007842  0.0109    1.5374   
     6. B(H   6,C   5)                1.0964 -0.004228  0.0063    1.1027   
     7. B(H   7,C   2)                1.0984 -0.003574  0.0054    1.1038   
     8. B(H   8,C   0)                1.0965 -0.003797  0.0056    1.1021   
     9. B(H   9,C   5)                1.0959 -0.002973  0.0044    1.1003   
    10. B(H  10,C   2)                1.0942 -0.005643  0.0083    1.1025   
    11. B(H  11,C   2)                1.0984 -0.002228  0.0033    1.1017   
    12. A(O   1,C   0,C   2)          109.05 -0.002798    1.28    110.34   
    13. A(O   1,C   0,H   8)          107.14  0.005277   -2.02    105.12   
    14. A(O   1,C   0,C   5)          109.68 -0.004957    1.82    111.50   
    15. A(C   5,C   0,H   8)          109.28  0.000207   -0.64    108.64   
    16. A(C   2,C   0,C   5)          111.90  0.001223    0.53    112.43   
    17. A(C   2,C   0,H   8)          109.68  0.001222   -1.09    108.59   
    18. A(C   0,O   1,H   3)          107.71  0.001872   -0.30    107.41   
    19. A(C   0,C   2,H  10)          111.58 -0.002079    0.29    111.87   
    20. A(H  10,C   2,H  11)          108.89  0.001518   -0.12    108.77   
    21. A(H   7,C   2,H  11)          106.46 -0.001964    0.56    107.02   
    22. A(C   0,C   2,H  11)          110.06 -0.000784    0.30    110.36   
    23. A(H   7,C   2,H  10)          108.98  0.001190   -0.56    108.42   
    24. A(C   0,C   2,H   7)          110.72  0.002150   -0.46    110.26   
    25. A(H   6,C   5,H   9)          108.77  0.004106   -0.91    107.86   
    26. A(H   4,C   5,H   6)          107.50  0.001763   -0.11    107.39   
    27. A(H   4,C   5,H   9)          107.40 -0.004794    0.83    108.23   
    28. A(C   0,C   5,H   9)          111.32  0.003970   -0.80    110.52   
    29. A(C   0,C   5,H   6)          110.40 -0.003286    0.63    111.03   
    30. A(C   0,C   5,H   4)          111.31 -0.001715    0.35    111.67   
    31. D(H   3,O   1,C   0,C   5)    -57.13  0.001693   -2.04    -59.17   
    32. D(H   3,O   1,C   0,H   8)   -175.64  0.001117   -1.11   -176.75   
    33. D(H   3,O   1,C   0,C   2)     65.73 -0.001789    0.62     66.35   
    34. D(H   7,C   2,C   0,H   8)   -173.19  0.000061   -1.67   -174.86   
    35. D(H   7,C   2,C   0,C   5)     65.36 -0.001857   -0.47     64.90   
    36. D(H  10,C   2,C   0,C   5)    -56.21 -0.003445    0.37    -55.83   
    37. D(H   7,C   2,C   0,O   1)    -56.16  0.005502   -3.98    -60.14   
    38. D(H  10,C   2,C   0,H   8)     65.24 -0.001527   -0.83     64.41   
    39. D(H  10,C   2,C   0,O   1)   -177.73  0.003915   -3.14   -180.87   
    40. D(H   6,C   5,C   0,C   2)     88.73  0.004013   -7.49     81.23   
    41. D(H   6,C   5,C   0,O   1)   -150.12 -0.002117   -4.27   -154.39   
    42. D(H   4,C   5,C   0,H   8)   -152.25  0.002575   -6.53   -158.78   
    43. D(H   4,C   5,C   0,C   2)    -30.58  0.005067   -7.99    -38.57   
    44. D(H   6,C   5,C   0,H   8)    -32.95  0.001521   -6.03    -38.98   
    45. D(H   4,C   5,C   0,O   1)     90.58 -0.001063   -4.77     85.81   
    ----------------------------------------------------------------------------

Geometry step timings:
Preparation and reading OPT file:      0.000 s ( 1.518 %)
Internal coordinates            :      0.000 s ( 3.157 %)
B/P matrices and projection     :      0.000 s (15.088 %)
Hessian update/contruction      :      0.000 s (14.086 %)
Making the step                 :      0.001 s (25.258 %)
Converting the step to Cartesian:      0.000 s ( 4.706 %)
Storing new data                :      0.000 s ( 1.973 %)
Checking convergence            :      0.000 s ( 4.463 %)
Final printing                  :      0.001 s (29.539 %)
Total time                      :      0.003 s
[1770543777.517758] [node213:2937111:0]     ucp_context.c:1234 UCX  WARN  transport 'ib' is not available, please use one or more of: mm, posix, self, shm, sm, sysv, tcp
[1770543777.578171] [node213:2937112:0]     ucp_context.c:1234 UCX  WARN  transport 'ib' is not available, please use one or more of: mm, posix, self, shm, sm, sysv, tcp
[1770543777.646563] [node213:2937116:0]     ucp_context.c:1234 UCX  WARN  transport 'ib' is not available, please use one or more of: mm, posix, self, shm, sm, sysv, tcp
[1770543777.714736] [node213:2937119:0]     ucp_context.c:1234 UCX  WARN  transport 'ib' is not available, please use one or more of: mm, posix, self, shm, sm, sysv, tcp

Time for energy+gradient        :     17.743 s
Time for complete geometry iter :     19.390 s

         *************************************************************
         *                GEOMETRY OPTIMIZATION CYCLE   2            *
         *************************************************************
---------------------------------
CARTESIAN COORDINATES (ANGSTROEM)
---------------------------------
  C     -2.570116   -0.885947    1.284419
  O     -1.147985   -0.998857    1.294101
  C     -3.193631   -2.093584    0.581169
  H     -0.846438   -0.933407    0.378182
  H     -3.101694    0.385463   -0.429353
  C     -3.024391    0.448224    0.670245
  H     -4.015207    0.743355    1.053823
  H     -2.839237   -2.153088   -0.462477
  H     -2.867519   -0.905023    2.345470
  H     -2.313328    1.249867    0.920220
  H     -4.294837   -2.040396    0.572596
  H     -2.887609   -3.027329    1.079412

----------------------------
CARTESIAN COORDINATES (A.U.)
----------------------------
  NO LB      ZA    FRAG     MASS         X           Y           Z
   0 C     6.0000    0    12.011   -4.856815   -1.674197    2.427199
   1 O     8.0000    0    15.999   -2.169378   -1.887565    2.445497
   2 C     6.0000    0    12.011   -6.035088   -3.956301    1.098250
   3 H     1.0000    0     1.008   -1.599536   -1.763883    0.714661
   4 H     1.0000    0     1.008   -5.861352    0.728419   -0.811359
   5 C     6.0000    0    12.011   -5.715271    0.847020    1.266579
   6 H     1.0000    0     1.008   -7.587642    1.404738    1.991436
   7 H     1.0000    0     1.008   -5.365380   -4.068746   -0.873956
   8 H     1.0000    0     1.008   -5.418825   -1.710245    4.432296
   9 H     1.0000    0     1.008   -4.371556    2.361907    1.738964
  10 H     1.0000    0     1.008   -8.116066   -3.855790    1.082050
  11 H     1.0000    0     1.008   -5.456790   -5.720822    2.039793

--------------------------------
INTERNAL COORDINATES (ANGSTROEM)
--------------------------------
 C      0   0   0     0.000000000000     0.00000000     0.00000000
 O      1   0   0     1.426638728445     0.00000000     0.00000000
 C      1   2   0     1.530267526831   110.29348937     0.00000000
 H      2   1   3     0.966500203587   107.41087876    66.37019420
 H      1   2   3     2.199106672999   106.97813696   263.54148812
 C      5   1   2     1.104096465419    40.51923108   256.03810599
 H      6   5   1     1.102701833822   107.38187818   238.06726942
 H      3   1   2     1.103781459400   110.25768943   299.85260972
 H      1   2   3     1.102107973359   105.13487114   116.88238458
 H      6   5   1     1.100332513635   108.23496437   121.87191183
 H      3   1   2     1.102523104214   111.86807053   179.12163670
 H      3   1   2     1.101714430265   110.35512907    57.87014244

---------------------------
INTERNAL COORDINATES (A.U.)
---------------------------
 C      0   0   0     0.000000000000     0.00000000     0.00000000
 O      1   0   0     2.695956488808     0.00000000     0.00000000
 C      1   2   0     2.891786537343   110.29348937     0.00000000
 H      2   1   3     1.826420693159   107.41087876    66.37019420
 H      1   2   3     4.155709351247   106.97813696   263.54148812
 C      5   1   2     2.086439945072    40.51923108   256.03810599
 H      6   5   1     2.083804473297   107.38187818   238.06726942
 H      3   1   2     2.085844669966   110.25768943   299.85260972
 H      1   2   3     2.082682239660   105.13487114   116.88238458
 H      6   5   1     2.079327107020   108.23496437   121.87191183
 H      3   1   2     2.083466723284   111.86807053   179.12163670
 H      3   1   2     2.081938550990   110.35512907    57.87014244

[1770543779.143362] [node213:2937140:0]     ucp_context.c:1234 UCX  WARN  transport 'ib' is not available, please use one or more of: mm, posix, self, shm, sm, sysv, tcp
[1770543779.205333] [node213:2937144:0]     ucp_context.c:1234 UCX  WARN  transport 'ib' is not available, please use one or more of: mm, posix, self, shm, sm, sysv, tcp
[1770543779.273103] [node213:2937150:0]     ucp_context.c:1234 UCX  WARN  transport 'ib' is not available, please use one or more of: mm, posix, self, shm, sm, sysv, tcp
[1770543779.342090] [node213:2937155:0]     ucp_context.c:1234 UCX  WARN  transport 'ib' is not available, please use one or more of: mm, posix, self, shm, sm, sysv, tcp


           ************************************************************
           *        Program running with 4 parallel MPI-processes     *
           *              working on a common directory               *
           ************************************************************
------------------------------------------------------------------------------
                   ___                                                        
                  /   \      - P O W E R E D   B Y -                         
                 /     \                                                     
                 |  |  |   _    _      __       _____    __    __             
                 |  |  |  | |  | |    /  \     |  _  \  |  |  /  |          
                  \  \/   | |  | |   /    \    | | | |  |  | /  /          
                 / \  \   | |__| |  /  /\  \   | |_| |  |  |/  /          
                |  |  |   |  __  | /  /__\  \  |    /   |      \           
                |  |  |   | |  | | |   __   |  |    \   |  |\   \          
                \     /   | |  | | |  |  |  |  | |\  \  |  | \   \       
                 \___/    |_|  |_| |__|  |__|  |_| \__\ |__|  \__/        
                                                                              
                      - O R C A' S   B I G   F R I E N D -                    
                                      &                                       
                       - I N T E G R A L  F E E D E R -                       
                                                                              
 v1 FN, 2020, v2 2021, v3 2022-2024                                           
------------------------------------------------------------------------------


----------------------
SHARK INTEGRAL PACKAGE
----------------------

Number of atoms                             ...     12
Number of basis functions                   ...     96
Number of shells                            ...     48
Maximum angular momentum                    ...      2
Integral batch strategy                     ... SHARK/LIBINT Hybrid
RI-J (if used) integral strategy            ... SPLIT-RIJ (Revised 2003 algorithm where possible)
Printlevel                                  ...      1
Contraction scheme used                     ... SEGMENTED contraction
Prescreening option                         ... SCHWARTZ
   Thresh                                   ... 1.000e-12
   Tcut                                     ... 1.000e-14
   Tpresel                                  ... 1.000e-14 
Coulomb Range Separation                    ... NOT USED
Exchange Range Separation                   ... NOT USED
Multipole approximations                    ... NOT USED
Finite Nucleus Model                        ... NOT USED
CABS basis                                  ... NOT available
Auxiliary Coulomb fitting basis             ... AVAILABLE
   # of basis functions in Aux-J            ...    284
   # of shells in Aux-J                     ...    100
   Maximum angular momentum in Aux-J        ...      4
Auxiliary J/K fitting basis                 ... NOT available
Auxiliary Correlation fitting basis         ... NOT available
Auxiliary 'external' fitting basis          ... NOT available

Checking pre-screening integrals            ... done (  0.0 sec) Dimension = 48
   => SHARK Basis and OBASIS are compatible. Storing Pre-screening
Shell pair information
Shell pair cut-off parameter TPreSel        ...   1.0e-14
Total number of shell pairs                 ...      1176
Shell pairs after pre-screening             ...      1173
[...]
 24+  24:  2908.71   0.000031    0.15  0.000003  ( 0.000247  0.001764  0.000336)
 24+  25:  2911.73   0.000019    0.09  0.000002  (-0.001000 -0.001000  0.000000)
 24+  26:  2923.98   0.000019    0.10  0.000002  ( 0.000004  0.001037 -0.001000)
 24+  27:  2932.77   0.000009    0.05  0.000001  ( 0.000000  0.000993 -0.000001)
 24+  28:  4465.76   0.000343    1.74  0.000024  ( 0.002000 -0.002000 -0.004000)
 24+  29:  4470.03   0.000029    0.14  0.000002  (-0.000999  0.000010 -0.000999)
 24+  30:  4493.11   0.000029    0.15  0.000002  (-0.000000 -0.001003 -0.001000)
 24+  31:  4543.30   0.000058    0.29  0.000004  (-0.002000  0.000001  0.000000)
 24+  32:  4552.22   0.000145    0.73  0.000010  (-0.001000 -0.002995  0.000001)
 24+  33:  4573.89   0.000044    0.22  0.000003  ( 0.001000 -0.000999 -0.001000)
 24+  34:  4575.57   0.000073    0.37  0.000005  ( 0.000002 -0.000993 -0.001999)
 24+  35:  5240.62   0.000017    0.08  0.000001  (-0.000000 -0.001000 -0.000000)
 25+  25:  2914.75   0.000049    0.25  0.000005  (-0.001433  0.001775 -0.000013)
 25+  26:  2927.00   0.000056    0.28  0.000006  ( 0.001002 -0.001980 -0.000999)
 25+  27:  2935.78   0.000000    0.00  0.000000  ( 0.000001  0.000002 -0.000000)
 25+  28:  4468.77   0.000158    0.80  0.000011  ( 0.003000 -0.001002  0.001000)
 25+  29:  4473.05   0.000029    0.15  0.000002  (-0.001001 -0.000006 -0.001002)
 25+  30:  4496.13   0.000043    0.22  0.000003  ( 0.001000 -0.001000 -0.001000)
 25+  31:  4546.32   0.000087    0.44  0.000006  ( 0.001000 -0.001000 -0.002000)
 25+  32:  4555.24   0.000000    0.00  0.000000  ( 0.000003  0.000000 -0.000004)
 25+  33:  4576.91   0.000088    0.44  0.000006  (-0.001000 -0.000999 -0.002000)
 25+  34:  4578.59   0.000088    0.45  0.000006  ( 0.001001  0.001002 -0.002000)
 25+  35:  5243.64   0.000017    0.08  0.000001  (-0.000000 -0.001000  0.000000)
 26+  26:  2939.25   0.000064    0.32  0.000007  (-0.001836 -0.000102  0.001838)
 26+  27:  2948.03   0.000006    0.03  0.000001  (-0.000225  0.000015 -0.000788)
 26+  28:  4481.02   0.000071    0.36  0.000005  ( 0.000000 -0.001984 -0.000999)
 26+  29:  4485.30   0.000288    1.45  0.000020  (-0.002059  0.000004 -0.003973)
 26+  30:  4508.38   0.000065    0.33  0.000005  ( 0.000007  0.000002 -0.002126)
 26+  31:  4558.57   0.000093    0.47  0.000006  ( 0.001008  0.002095 -0.000997)
 26+  32:  4567.49   0.000045    0.23  0.000003  ( 0.001194 -0.000011 -0.001287)
 26+  33:  4589.16   0.000041    0.21  0.000003  ( 0.001012 -0.000861 -0.000999)
 26+  34:  4590.84   0.000083    0.42  0.000006  ( 0.002191 -0.000017 -0.000925)
 26+  35:  5255.89   0.000034    0.17  0.000002  ( 0.000951  0.000003  0.001057)
 27+  27:  2956.82   0.000030    0.15  0.000003  ( 0.000160  0.001757  0.000053)
 27+  28:  4489.81   0.000014    0.07  0.000001  ( 0.001001  0.000027  0.000001)
 27+  29:  4494.09   0.000084    0.43  0.000006  ( 0.000958 -0.000997 -0.001983)
 27+  30:  4517.17   0.000029    0.15  0.000002  ( 0.001006 -0.000999 -0.000056)
 27+  31:  4567.36   0.000090    0.45  0.000006  ( 0.001002  0.002029 -0.000999)
 27+  32:  4576.28   0.000018    0.09  0.000001  ( 0.001087 -0.000005 -0.000121)
 27+  33:  4597.95   0.000000    0.00  0.000000  ( 0.000002  0.000030  0.000001)
 27+  34:  4599.63   0.000203    1.02  0.000014  ( 0.001033 -0.002004 -0.002943)
 27+  35:  5264.68   0.000017    0.09  0.000001  (-0.000008 -0.001000  0.000010)
 28+  28:  6022.80   0.000141    0.71  0.000007  (-0.000398  0.001944  0.001837)
 28+  29:  6027.08   0.000086    0.44  0.000004  ( 0.000096 -0.001868 -0.000982)
 28+  30:  6050.15   0.000043    0.22  0.000002  (-0.000010 -0.001119 -0.000989)
 28+  31:  6100.34   0.000098    0.49  0.000005  (-0.001000 -0.000001  0.002000)
 28+  32:  6109.27   0.000001    0.01  0.000000  (-0.000027 -0.000225  0.000013)
 28+  33:  6130.94   0.000118    0.59  0.000006  (-0.000999 -0.000992 -0.002000)
 28+  34:  6132.62   0.000164    0.83  0.000008  ( 0.000011 -0.002091 -0.001991)
 28+  35:  6797.67   0.000044    0.22  0.000002  ( 0.000999 -0.001003  0.000000)
 29+  29:  6031.35   0.000189    0.95  0.000010  ( 0.001655  0.001892  0.001859)
 29+  30:  6054.43   0.000023    0.12  0.000001  (-0.000018 -0.001009 -0.000407)
 29+  31:  6104.62   0.000026    0.13  0.000001  (-0.000039 -0.000529 -0.001012)
 29+  32:  6113.54   0.000046    0.23  0.000002  (-0.001145  0.000065 -0.001012)
 29+  33:  6135.21   0.000050    0.25  0.000003  ( 0.000062 -0.001240 -0.000996)
 29+  34:  6136.89   0.000163    0.82  0.000008  (-0.001039 -0.001088 -0.002456)
 29+  35:  6801.94   0.000022    0.11  0.000001  (-0.000014 -0.000999  0.000023)
 30+  30:  6077.51   0.000081    0.41  0.000004  (-0.000992  0.001785  0.000002)
 30+  31:  6127.70   0.000036    0.18  0.000002  ( 0.000008 -0.000903 -0.001002)
 30+  32:  6136.62   0.000033    0.17  0.000002  ( 0.000002 -0.000013 -0.001300)
 30+  33:  6158.29   0.000041    0.21  0.000002  ( 0.000972 -0.000332 -0.001006)
 30+  34:  6159.97   0.000213    1.07  0.000011  ( 0.001585 -0.001964 -0.002100)
 30+  35:  6825.02   0.000022    0.11  0.000001  (-0.000037 -0.000997  0.000021)
 31+  31:  6177.89   0.000121    0.61  0.000006  ( 0.000572  0.000081  0.002405)
 31+  32:  6186.81   0.000073    0.37  0.000004  (-0.000004  0.001921 -0.000005)
 31+  33:  6208.48   0.000219    1.11  0.000011  ( 0.002999 -0.001009 -0.001000)
 31+  34:  6210.16   0.000128    0.65  0.000006  ( 0.001002  0.001202 -0.002000)
 31+  35:  6875.21   0.000022    0.11  0.000001  ( 0.000000  0.000001 -0.001000)
 32+  32:  6195.73   0.000029    0.15  0.000001  ( 0.000898  0.000062  0.000820)
 32+  33:  6217.40   0.000002    0.01  0.000000  ( 0.000047 -0.000317  0.000022)
 32+  34:  6219.08   0.000034    0.17  0.000002  (-0.000738 -0.000104 -0.001084)
 32+  35:  6884.13   0.000000    0.00  0.000000  (-0.000004  0.000000  0.000005)
 33+  33:  6239.08   0.000071    0.36  0.000004  (-0.000244  0.001762  0.000623)
 33+  34:  6240.76   0.000442    2.23  0.000022  ( 0.000054 -0.004256 -0.001997)
 33+  35:  6905.80   0.000111    0.56  0.000005  ( 0.001000 -0.002000 -0.000000)
 34+  34:  6242.44   0.000193    0.98  0.000010  (-0.000469  0.001780  0.002505)
 34+  35:  6907.48   0.000133    0.67  0.000006  ( 0.001003 -0.002000 -0.001005)
 35+  35:  7572.53   0.000703    3.55  0.000029  (-0.002573  0.001823  0.004362)

* The epsilon (eps) is given for a Dirac delta lineshape.
** The dipole moment derivative (T) already includes vibrational overlap.

The first frequency considered to be a vibration is 6
The total number of vibrations considered is 30


--------------------------
THERMOCHEMISTRY AT 298.15K
--------------------------

Temperature         ...   298.15 K
Pressure            ...     1.00 atm
Total Mass          ...    60.10 AMU
Quasi RRHO          ...     True
Cut-Off Frequency   ...     1.00 cm^-1

Throughout the following assumptions are being made:
  (1) The electronic state is orbitally nondegenerate
  (2) There are no thermally accessible electronically excited states
  (3) Hindered rotations indicated by low frequency modes are not
      treated as such but are treated as vibrations and this may
      cause some error
  (4) All equations used are the standard statistical mechanics
      equations for an ideal gas
  (5) All vibrations are strictly harmonic

freq.     238.99  E(vib)   ...       0.32 
freq.     275.21  E(vib)   ...       0.28 
freq.     303.44  E(vib)   ...       0.26 
freq.     360.52  E(vib)   ...       0.22 
freq.     434.63  E(vib)   ...       0.17 
freq.     476.48  E(vib)   ...       0.15 
freq.     822.72  E(vib)   ...       0.05 
freq.     918.06  E(vib)   ...       0.03 
freq.     931.84  E(vib)   ...       0.03 
freq.     976.23  E(vib)   ...       0.03 
freq.    1088.44  E(vib)   ...       0.02 
freq.    1144.19  E(vib)   ...       0.01 
freq.    1186.39  E(vib)   ...       0.01 
freq.    1303.92  E(vib)   ...       0.01 
freq.    1348.70  E(vib)   ...       0.01 
freq.    1387.18  E(vib)   ...       0.00 
freq.    1393.59  E(vib)   ...       0.00 
freq.    1411.94  E(vib)   ...       0.00 
freq.    1454.36  E(vib)   ...       0.00 
freq.    1457.37  E(vib)   ...       0.00 
freq.    1469.62  E(vib)   ...       0.00 
freq.    1478.41  E(vib)   ...       0.00 
freq.    3011.40  E(vib)   ...       0.00 
freq.    3015.68  E(vib)   ...       0.00 
freq.    3038.76  E(vib)   ...       0.00 
freq.    3088.95  E(vib)   ...       0.00 
freq.    3097.87  E(vib)   ...       0.00 
freq.    3119.54  E(vib)   ...       0.00 
freq.    3121.22  E(vib)   ...       0.00 
freq.    3786.27  E(vib)   ...       0.00 

------------
INNER ENERGY
------------

The inner energy is: U= E(el) + E(ZPE) + E(vib) + E(rot) + E(trans)
    E(el)   - is the total energy from the electronic structure calculation
              = E(kin-el) + E(nuc-el) + E(el-el) + E(nuc-nuc)
    E(ZPE)  - the the zero temperature vibrational energy from the frequency calculation
    E(vib)  - the the finite temperature correction to E(ZPE) due to population
              of excited vibrational states
    E(rot)  - is the rotational thermal energy
    E(trans)- is the translational thermal energy

Summary of contributions to the inner energy U:
Electronic energy                ...   -194.09026019 Eh
Zero point energy                ...      0.10739718 Eh      67.39 kcal/mol
Thermal vibrational correction   ...      0.00258030 Eh       1.62 kcal/mol
Thermal rotational correction    ...      0.00141627 Eh       0.89 kcal/mol
Thermal translational correction ...      0.00141627 Eh       0.89 kcal/mol
-----------------------------------------------------------------------
Total thermal energy                   -193.97745017 Eh


Summary of corrections to the electronic energy:
(perhaps to be used in another calculation)
Total thermal correction                  0.00541284 Eh       3.40 kcal/mol
Non-thermal (ZPE) correction              0.10739718 Eh      67.39 kcal/mol
-----------------------------------------------------------------------
Total correction                          0.11281002 Eh      70.79 kcal/mol


--------
ENTHALPY
--------

The enthalpy is H = U + kB*T
                kB is Boltzmann's constant
Total thermal energy              ...   -193.97745017 Eh 
Thermal Enthalpy correction       ...      0.00094421 Eh       0.59 kcal/mol
-----------------------------------------------------------------------
Total Enthalpy                    ...   -193.97650596 Eh


Note: Only C1 symmetry has been detected, increase convergence thresholds 
      if your molecule has a higher symmetry. Symmetry factor of 1.0 is   
      used for the rotational entropy correction. 
 

Note: Rotational entropy computed according to Herzberg 
Infrared and Raman Spectra, Chapter V,1, Van Nostrand Reinhold, 1945 
Point Group:  C1, Symmetry Number:   1  
Rotational constants in cm-1:     0.283592     0.265085     0.158097 

Vibrational entropy computed according to the QRRHO of S. Grimme
Chem.Eur.J. 2012 18 9955 using a reference frequency of 100.0 cm-1


-------
ENTROPY
-------

The entropy contributions are T*S = T*(S(el)+S(vib)+S(rot)+S(trans))
     S(el)   - electronic entropy
     S(vib)  - vibrational entropy
     S(rot)  - rotational entropy
     S(trans)- translational entropy
The entropies will be listed as multiplied by the temperature to get
units of energy

Electronic entropy                ...      0.00000000 Eh      0.00 kcal/mol
Vibrational entropy               ...      0.00396262 Eh      2.49 kcal/mol
Rotational entropy                ...      0.01160334 Eh      7.28 kcal/mol
Translational entropy             ...      0.01815004 Eh     11.39 kcal/mol
-----------------------------------------------------------------------
Final entropy term                ...      0.03371599 Eh     21.16 kcal/mol

In case the symmetry of your molecule has not been determined correctly
or in case you have a reason to use a different symmetry number we print 
out the resulting rotational entropy values for sn=1,12:

 non-linear molecules -----------------------------------
|  sn= 1 | S(rot)=       0.01160334 Eh      7.28 kcal/mol|
|  sn= 2 | S(rot)=       0.01094888 Eh      6.87 kcal/mol|
|  sn= 3 | S(rot)=       0.01056605 Eh      6.63 kcal/mol|
|  sn= 4 | S(rot)=       0.01029442 Eh      6.46 kcal/mol|
|  sn= 5 | S(rot)=       0.01008373 Eh      6.33 kcal/mol|
|  sn= 6 | S(rot)=       0.00991159 Eh      6.22 kcal/mol|
|  sn= 7 | S(rot)=       0.00976604 Eh      6.13 kcal/mol|
|  sn= 8 | S(rot)=       0.00963997 Eh      6.05 kcal/mol|
|  sn= 9 | S(rot)=       0.00952876 Eh      5.98 kcal/mol|
|  sn=10 | S(rot)=       0.00942928 Eh      5.92 kcal/mol|
|  sn=11 | S(rot)=       0.00933929 Eh      5.86 kcal/mol|
|  sn=12 | S(rot)=       0.00925713 Eh      5.81 kcal/mol|
 linear molecules ---------------------------------------
|  Dinfh | S(rot)=       0.00706739 Eh      4.43 kcal/mol|
|  Cinfv | S(rot)=       0.00772185 Eh      4.85 kcal/mol|
 --------------------------------------------------------


-------------------
GIBBS FREE ENERGY
-------------------

The Gibbs free energy is G = H - T*S

Total enthalpy                    ...   -193.97650596 Eh 
Total entropy correction          ...     -0.03371599 Eh    -21.16 kcal/mol
-----------------------------------------------------------------------
Final Gibbs free energy         ...   -194.01022195 Eh

For completeness - the Gibbs free energy minus the electronic energy
G-E(el)                           ...      0.08003824 Eh     50.22 kcal/mol

[1770544300.994325] [node213:2950355:0]     ucp_context.c:1234 UCX  WARN  transport 'ib' is not available, please use one or more of: mm, posix, self, shm, sm, sysv, tcp
[1770544301.056819] [node213:2950356:0]     ucp_context.c:1234 UCX  WARN  transport 'ib' is not available, please use one or more of: mm, posix, self, shm, sm, sysv, tcp
[1770544301.124706] [node213:2950359:0]     ucp_context.c:1234 UCX  WARN  transport 'ib' is not available, please use one or more of: mm, posix, self, shm, sm, sysv, tcp
[1770544301.192499] [node213:2950362:0]     ucp_context.c:1234 UCX  WARN  transport 'ib' is not available, please use one or more of: mm, posix, self, shm, sm, sysv, tcp

--------------------------------
SUGGESTED CITATIONS FOR THIS RUN
--------------------------------

Below you find a list of papers that are relevant to this ORCA run
We neither can nor want to force you to cite these papers, but we appreciate if you do
You receive ORCA, which is the product of decades of hard work by many enthusiastic individuals, for free
The only thing we kindly ask in return is that you cite our papers,
We deeply appreciate it, if you show your appreciation for ORCA by not just citing the generic ORCA reference.

Please note that relegating all ORCA citations to the supporting information does *not* help us.
SI sections are not indexed - citations you put there will not count into any citation statistics
But we need these citations in order to attract the funding resources that allow us to do what we are doing

Therefore, if you are a happy ORCA user, please consider citing a few of the papers listed below in the main body of your paper

In addition to the list printed below, the program has created the file IPA_T.bibtex that contains the list in bibtex format
You can import this file easily into all common literature databanks and citation aid programs


List of essential papers. We consider these as the minimum necessary citations

  1. Neese, F.
     Software update: the ORCA program system, version 6.0
     WIRES Comput. Molec. Sci. 2025 15(1), e70019
     doi.org/10.1002/wcms.7019

List of papers to cite with high priority. The work reported in these papers was absolutely
necessary for this run to complete.
Our perspective: the developers of density functionals and basis sets usually get cited in chemistry papers
Good! But without the algorithms to do something with them, the functionals or basis sets would not do anything.
Hence, in our opinion, the algorithm design and method developments papers are equally worthy of getting cited

  1. Neese, F.
     An improvement of the resolution of the identity approximation for the formation of the Coulomb matrix
     J. Comp. Chem. 2003 24(14), 1740-1747
     doi.org/10.1002/jcc.10318
  2. Neese, F.; Wennmohs, F.; Hansen, A.; Becker, U.
     Efficient, approximate and parallel Hartree-Fock and hybrid DFT calculations. A 'chain-of-spheres' algorithm for the Hartree-Fock exchange
     Chem. Phys. 2009 356(1-3), 98-109
     doi.org/10.1016/j.chemphys.2008.10.036
  3. Bykov, D.; Petrenko, T.; Izsak, R.; Kossmann, S.; Becker, U.; Valeev, E.; Neese, F.
     Efficient implementation of the analytic second derivatives of Hartree-Fock and hybrid DFT energies: a detailed analysis of different approximations
     Molec. Phys. 2015 113 , 1961-1977
     doi.org/10.1080/00268976.2015.1025114
  4. Bannwarth, C.; Caldeweyher, E.; Ehlert, S.; Hansen, A.; Pracht, P.; Seibert, J.; Spicher, S.; Grimme, S.
     Extended tight-binding quantum chemistry methods
     WIRES Comput. Molec. Sci. 2020 11(2), e1493
     doi.org/10.1002/wcms.1493
  5. Helmich-Paris, B.; de Souza, B.; Neese, F.; Izsák, R.
     An improved chain of spheres for exchange algorithm
     J. Chem. Phys. 2021 155(10), 104109
     doi.org/10.1063/5.0058766
  6. Neese, F.
     The SHARK Integral Generation and Digestion System
     J. Comp. Chem. 2022 44(3), 381
     doi.org/10.1002/jcc.26942

List of suggested additional citations. These are papers that are important in the 'surrounding' of 
of this run, or papers that preceded the highly important papers. If you like your results we are grateful for a citation.

  1. Izsak, R.; Neese, F.
     An overlap fitted chain of spheres exchange method
     J. Chem. Phys. 2011 135 , 144105
     doi.org/10.1063/1.3646921
  2. Izsak, R.; Hansen, A.; Neese, F.
     The resolution of identity and chain of spheres approximations for the LPNO-CCSD singles Fock term
     Molec. Phys. 2012 110 , 2413-2417
     doi.org/10.1080/00268976.2012.687466
  3. Neese, F.
     The ORCA program system
     WIRES Comput. Molec. Sci. 2012 2(1), 73-78
     doi.org/10.1002/wcms.81
  4. Izsak, R.; Neese, F.; Klopper, W.
     Robust fitting techniques in the chain of spheres approximation to the Fock exchange: The role of the complementary space
     J. Chem. Phys. 2013 139 , 
     doi.org/10.1063/1.4819264
  5. Neese, F.
     Software update: the ORCA program system, version 4.0
     WIRES Comput. Molec. Sci. 2018 8(1), 1-6
     doi.org/10.1002/wcms.1327
  6. Neese, F.; Wennmohs, F.; Becker, U.; Riplinger, C.
     The ORCA quantum chemistry program package
     J. Chem. Phys. 2020 152(22), 224108
     doi.org/10.1063/5.0004608
  7. Neese, F.
     Software update: The ORCA program system—Version 5.0
     WIRES Comput. Molec. Sci. 2022 12(1), e1606
     doi.org/10.1002/wcms.1606

List of optional additional citations

  1. Neese, F.
     Approximate second-order SCF convergence for spin unrestricted wavefunctions
     Chem. Phys. Lett. 2000 325(1-3), 93-98
     doi.org/10.1016/s0009-2614(00)00662-x

Timings for individual modules:

Sum of individual times          ...      193.910 sec (=   3.232 min)
Startup calculation              ...       19.418 sec (=   0.324 min)  10.0 %
SCF iterations                   ...       64.763 sec (=   1.079 min)  33.4 %
Property integrals               ...       24.440 sec (=   0.407 min)  12.6 %
SCF Response                     ...        6.428 sec (=   0.107 min)   3.3 %
Property calculations            ...       36.407 sec (=   0.607 min)  18.8 %
SCF Gradient evaluation          ...       42.364 sec (=   0.706 min)  21.8 %
Geometry relaxation              ...        0.065 sec (=   0.001 min)   0.0 %
XTB module                       ...        0.024 sec (=   0.000 min)   0.0 %
                             ****ORCA TERMINATED NORMALLY****
TOTAL RUN TIME: 0 days 0 hours 9 minutes 3 seconds 6 msec
