
                                 *****************
                                 * O   R   C   A *
                                 *****************

                                            #,                                       
                                            ###                                      
                                            ####                                     
                                            #####                                    
                                            ######                                   
                                           ########,                                 
                                     ,,################,,,,,                         
                               ,,#################################,,                 
                          ,,##########################################,,             
                       ,#########################################, ''#####,          
                    ,#############################################,,   '####,        
                  ,##################################################,,,,####,       
                ,###########''''           ''''###############################       
              ,#####''   ,,,,##########,,,,          '''####'''          '####       
            ,##' ,,,,###########################,,,                        '##       
           ' ,,###''''                  '''############,,,                           
         ,,##''                                '''############,,,,        ,,,,,,###''
      ,#''                                            '''#######################'''  
     '                                                          ''''####''''         
             ,#######,   #######,   ,#######,      ##                                
            ,#'     '#,  ##    ##  ,#'     '#,    #''#        ,####,    ,#,          
            ##       ##  ##   ,#'  ##            #'  '#       #'       ,# #          
            ##       ##  #######   ##           ,######,      #####,      #          
            '#,     ,#'  ##    ##  '#,     ,#' ,#      #,     #,   #      #          
             '#######'   ##     ##  '#######'  #'      '#     '####' #    #          



                #########################################################
                #                        -***-                          #
                #          Department of theory and spectroscopy        #
                #                                                       #
                #                      Frank Neese                      #
                #                                                       #
                #     Directorship, Architecture, Infrastructure        #
                #                    SHARK, DRIVERS                     #
                #        Core code/Algorithms in most modules           #
                #                                                       #
                #        Max Planck Institute fuer Kohlenforschung      #
                #                Kaiser Wilhelm Platz 1                 #
                #                 D-45470 Muelheim/Ruhr                 #
                #                      Germany                          #
                #                                                       #
                #                  All rights reserved                  #
                #                        -***-                          #
                #########################################################


                         Program Version 6.1.0  -  RELEASE   -
                                (GIT: $679e74b$)
                          ($2025-06-10 18:02:51 +0200$)


 With contributions from (in alphabetic order):
[Max-Planck-Institut fuer Kohlenforschung]                               
  Daniel Aravena         : Magnetic Suceptibility                        
  Michael Atanasov       : Ab Initio Ligand Field Theory (pilot matlab implementation)
  Alexander A. Auer      : GIAO ZORA, VPT2 properties, NMR spectrum      
  Ute Becker             : All parallelization in ORCA, NUMFREQ, NUMCALC 
  Giovanni Bistoni       : ED, misc. LED, open-shell LED, HFLD           
  Dmytro Bykov           : pre 5.0 version of the SCF Hessian            
  Marcos Casanova-Páez   : Triplet and SCS-CIS(D). UHF-(DLPNO)-IP/EA/STEOM-CCSD. UHF-CVS-IP/STEOM-CCSD   
  Vijay G. Chilkuri      : MRCI spin determinant printing, contributions to CSF-ICE 
  Pauline Colinet        : FMM embedding                                 
  Dipayan Datta          : RHF DLPNO-CCSD density                        
  Achintya Kumar Dutta   : EOM-CC, STEOM-CC                              
  Nicolas Foglia         : Exact transition moments, OPA infrastructure, MCD improvements    
  Dmitry Ganyushin       : Spin-Orbit,Spin-Spin,Magnetic field MRCI      
  Miquel Garcia-Rates    : C-PCM and meta-GGA Hessian, CCSD/C-PCM, Gaussian charge scheme 
  Tiago L. C. Gouveia    : GS-ROHF, GS-ROCIS                             
  Yang Guo               : DLPNO-NEVPT2, F12-NEVPT2, CIM, IAO-localization        
  Andreas Hansen         : Spin unrestricted coupled pair/coupled cluster methods 
  Ingolf Harden          : AUTO-CI MPn and infrastructure                
  Benjamin Helmich-Paris : MC-RPA, TRAH-(SCF,CASSCF), AVAS, COSX integrals, SCF dyn. polar., MC-PDFT, srDFT 
  Lee Huntington         : MR-EOM, pCC                                   
  Robert Izsak           : Overlap fitted RIJCOSX, COSX-SCS-MP3, EOM     
  Riya Kayal             : Wick's Theorem for AUTO-CI, AUTO-CI UHF-CCSDT 
  Emily Kempfer          : AUTO-CI RHF CISDT and CCSDT, approximate NEVPT4
  Christian Kollmar      : KDIIS, OOCD, Brueckner-CCSD(T), CCSD density, CASPT2, CASPT2-K, improved NEVPT2 
  Axel Koslowski         : Symmetry handling                             
  Simone Kossmann        : meta-GGA functionals, TD-DFT gradient, OOMP2, (MP2 Hessian; deprecated post 5.0) 
  Lucas Lang             : DCDCAS, Hyperfine gauge corrections, ICE-SOC+SSC
  Marvin Lechner         : AUTO-CI (C++ implementation), FIC-MRCC        
  Spencer Leger          : CASSCF response                               
  Dagmar Lenk            : GEPOL surface, SMD, ORCA-2-JSON               
  Dimitrios Liakos       : Extrapolation schemes; Compound Job, Property file
  Dimitrios Manganas     : Further ROCIS development; embedding schemes. LFT, Crystal Embedding 
  Dimitrios Pantazis     : SARC Basis sets                               
  Anastasios Papadopoulos: AUTO-CI, single reference methods and gradients 
  Taras Petrenko         : pre 6.0 DFT Hessian and TD-DFT gradient,  ECA, NRVS 
  Petra Pikulova         : Analytic Raman intensities                    
  Peter Pinski           : DLPNO-MP2, DLPNO-MP2 Gradient                 
  Shashank Vittal Rao    : ES-AILFT, MagRelax                            
  Christoph Reimann      : Effective Core Potentials                     
  Marius Retegan         : Local ZFS, SOC                                
  Christoph Riplinger    : Optimizer, TS searches, QM/MM, DLPNO-CCSD(T), (RO)-DLPNO pert. Triples 
  Michael Roemelt        : Original ROCIS implementation, recursive CI coupling coefficients
  Masaaki Saitow         : Open-shell DLPNO-CCSD energy and density      
  Barbara Sandhoefer     : DKH picture change effects                    
  Yorick L. A. Schmerwitz: GMF and freeze-and-release deltaSCF, NEB S-IDPP initial path                    
  Kantharuban Sivalingam : CASSCF convergence/infrastructure, NEVPT2, NEVPT3, NEVPT4(SD), FIC-MRCI and CEPA variants
  Bernardo de Souza      : ESD, SOC TD-DFT                               
  Georgi L. Stoychev     : AutoAux, RI-MP2 NMR, DLPNO-MP2 response, X2C  
  Van Anh Tran           : RI-MP2 g-tensors                              
  Willem Van den Heuvel  : Paramagnetic NMR                              
  Zikuan Wang            : NOTCH, Electric field optimization            
  Frank Wennmohs         : Technical directorship and infrastructure     
  Hang Xu                : AUTO-CI-Response properties                   
                                                                         
[FACCTs GmbH]                                                            
  Markus Bursch, Nicolas Foglia, Miquel Garcia-Rates, Ingolf Harden, Hagen Neugebauer, Anastasios Papadopoulos, 
  Christoph Riplinger, Bernardo de Souza, Georgi L. Stoychev                                                    
                                                                 
  APM, various basis sets, CI-OPT, improved COSX, DLPNO-Multilevel,           
  DOCKER, DRACO, updates on ESD, Fragmentator, GOAT, IRC, LR-CPCM, L-BFGS, MBIS, meta-GGA TD-DFT gradient, ML-optimized integration grids, 
  MM, NACMEs, nearIR, NEB, NEB-TS, NL-DFT gradient (VV10), 2- and 3-layer-ONIOM, interface openCOSMO-RS, QMMM,   
  Crystal-QMMM, RESP, rigid body optimization, SF, symmetry and pop. for TD-DFT, various functionals, SOLVATOR                                   
                                                                         
[Other institutions]                                                     
  V. Asgeirsson          : NEB                                           
  Christoph Bannwarth    : sTDA-DFT, sTD-DFT, PBEh-3c, B97-3c, D3        
  Giovanni Bistoni       : ETS/NOCV, ADLD/ADEX, COVALED                  
  Martin Brehm           : Molecular dynamics                            
  Ronald Cardenas        : ETS/NOCV                                      
  Martina Colucci        : COVALED                                       
  Sebastian Ehlert       : rSCAN, r2SCAN, r2SCAN-3c, D4, dhf basis sets  
  Marvin Friede          : D4 for Fr, Ra, Ac-Lr                          
  Lars Goerigk           : TD-DFT with DH, B97 family of functionals     
  Stefan Grimme          : VdW corrections, initial TS optimization, DFT functionals, gCP, sTDA/sTD-DF 
  Waldemar Hujo          : DFT-NL                                        
  H. Jonsson             : NEB                                           
  Holger Kruse           : gCP                                           
  Marcel Mueller         : wB97X-3c, vDZP basis set                      
  Hagen Neugebauer       : wr2SCAN, Native XTB                           
  Gianluca Regni         : ADLD/ADEX                                     
  Tobias Risthaus        : pre 6.0 range-separated hybrid DFT and stability analysis
  Lukas Wittmann         : regularized MP2, r2SCAN double-hybrids, wr2SCAN        
                                                                         
We gratefully acknowledge several colleagues who have allowed us to      
interface, adapt or use parts of their codes:                            
  Ed Valeev, F. Pavosevic, A. Kumar             : LibInt (2-el integral package), F12 methods 
  Garnet Chan, S. Sharma, J. Yang, R. Olivares  : DMRG                   
  Ulf Ekstrom                                   : XCFun DFT Library      
  Mihaly Kallay                                 : mrcc  (arbitrary order and MRCC methods)
  Frank Weinhold                                : gennbo (NPA and NBO analysis)           
  Simon Mueller                                 : openCOSMO-RS                            
  Christopher J. Cramer and Donald G. Truhlar   : smd solvation model                     
  S Lehtola, MJT Oliveira, MAL Marques          : LibXC Library                           
  Liviu Ungur et al                             : ANISO software                          


 Your calculation uses the libint2 library for the computation of 2-el integrals
 For citations please refer to: http://libint.valeyev.net

 Your ORCA version has been built with support for libXC version: 7.0.0
 For citations please refer to: https://libxc.gitlab.io

 This ORCA versions uses:
   CBLAS   interface :  Fast vector & matrix operations
   LAPACKE interface :  Fast linear algebra routines
   SCALAPACK package :  Parallel linear algebra routines
   Shared memory     :  Shared parallel matrices
   BLAS/LAPACK       :  OpenBLAS 0.3.29  USE64BITINT DYNAMIC_ARCH NO_AFFINITY Haswell SINGLE_THREADED
        Core in use  :  Haswell
   Copyright (c) 2011-2014, The OpenBLAS Project


  ***********************************
  * Starting time: Sun Feb  8 10:41:47 2026
  * Host name:     node213.cluster
  * Process ID:    2936509
  * Working dir.:  /data/scratch/56927818
  ***********************************

NOTE: MaxCore=1500 MB was set to SCF,MP2,MDCI,CIPSI,MRCI,RASCI and CIS
      => If you want to overwrite this, your respective input block should be placed after the MaxCore statement
Warning: RI is on but no J-basis has been assigned. Assigning Def2/J (nothing to worry about!)
================================================================================

----- Orbital basis set information -----
Your calculation utilizes the basis: def2-SVP
   F. Weigend and R. Ahlrichs, Phys. Chem. Chem. Phys. 7, 3297 (2005).

----- AuxJ basis set information -----
Your calculation utilizes the auxiliary basis: def2/J
   H-Rn: F. Weigend, Phys. Chem. Chem. Phys. 8, 1057 (2006).
   Fr-Lr: K. Eichkorn, F. Weigend, O. Treutler, R. Ahlrichs; Theor. Chem. Acc. 97, 119 (1997).

================================================================================
                                        WARNINGS
                       Please study these warnings very carefully!
================================================================================


WARNING: Geometry Optimization
  ===> : Switching off AutoStart
         For restart on a previous wavefunction, please use MOREAD

WARNING: Found frequency calculation in combination with XTB calculation
  ===> : Need to redirect dipole moment calculation to properties.out


================================================================================
                                       INPUT FILE
================================================================================
NAME = IPA_G.inp
|  1> ! b3lyp tightopt freq NEARIR
|  2> 
|  3>  %pal 
|  4>  nprocs 4 
|  5>  end 
|  6>  
|  7>  %maxcore 1500 
|  8> 
|  9> * XYZ 0 1
| 10> C     -2.4965386872   -0.8091378971    1.1964596283
| 11> O     -1.1054132637   -0.8910034447    0.9028931745
| 12> C     -3.1783475114   -2.0393629682    0.6192423668
| 13> H     -0.6781867681   -0.1068531434    1.2877755307
| 14> H     -2.9168550476    0.5019182593   -0.4809509422
| 15> C     -3.0620548308    0.4731639486    0.6045784363
| 16> H     -4.1306141496    0.5721895320    0.8192797958
| 17> H     -3.0162030841   -2.1076792275   -0.4623502821
| 18> H     -2.6137156649   -0.8024179165    2.2856309042
| 19> H     -2.5423431844    1.3461613346    1.0143811714
| 20> H     -4.2551330833   -2.0267722905    0.8133832439
| 21> H     -2.7554873473   -2.9499086340    1.0574565365
| 22> *
| 23> 
| 24>                          ****END OF INPUT****
================================================================================

                       *****************************
                       * Geometry Optimization Run *
                       *****************************

Geometry optimization settings:
Update method            Update   .... BFGS
Choice of coordinates    CoordSys .... (2022) Redundant Internals
Initial Hessian          InHess   .... Almloef's Model
Max. no of cycles        MaxIter  .... 50

Convergence Tolerances:
Energy Change            TolE     ....  1.0000e-06 Eh
Max. Gradient            TolMAXG  ....  1.0000e-04 Eh/bohr
RMS Gradient             TolRMSG  ....  3.0000e-05 Eh/bohr
Max. Displacement        TolMAXD  ....  1.0000e-03 bohr
RMS Displacement         TolRMSD  ....  6.0000e-04 bohr
Strict Convergence                .... False

------------------------------------------------------------------------------
                        ORCA OPTIMIZATION COORDINATE SETUP
------------------------------------------------------------------------------

The optimization will be done in redundant internal coordinates (2022)
Making redundant internal coordinates   ...  (2022 redundants) done
Evaluating the initial hessian          ...  (Almloef) done
Evaluating the coordinates              ...  done
Calculating the B-matrix                .... done
Calculating the G-matrix                .... done
The number of degrees of freedom        ....   45

    -----------------------------------------------------------------
                    Redundant Internal Coordinates


    -----------------------------------------------------------------
         Definition                    Initial Value    Approx d2E/dq
    -----------------------------------------------------------------
      1. B(O   1,C   0)                  1.4241         0.493676   
      2. B(C   2,C   0)                  1.5204         0.387040   
      3. B(H   3,O   1)                  0.9724         0.496814   
      4. B(C   5,H   4)                  1.0956         0.352800   
      5. B(C   5,C   0)                  1.5213         0.385672   
      6. B(H   6,C   5)                  1.0944         0.354320   
      7. B(H   7,C   2)                  1.0958         0.352495   
      8. B(H   8,C   0)                  1.0955         0.352927   
      9. B(H   9,C   5)                  1.0955         0.352872   
     10. B(H  10,C   2)                  1.0942         0.354561   
     11. B(H  11,C   2)                  1.0954         0.353006   
     12. A(O   1,C   0,C   2)          108.2573         0.381147   
     13. A(O   1,C   0,H   8)          108.0467         0.336453   
     14. A(O   1,C   0,C   5)          109.3518         0.380913   
     15. A(C   5,C   0,H   8)          109.9918         0.324945   
     16. A(C   2,C   0,C   5)          111.5692         0.367561   
     17. A(C   2,C   0,H   8)          109.5402         0.325135   
     18. A(C   0,O   1,H   3)          107.5314         0.353250   
     19. A(C   0,C   2,H  10)          111.3852         0.325382   
     20. A(H  10,C   2,H  11)          108.5700         0.289229   
     21. A(H   7,C   2,H  11)          106.6134         0.288964   
     22. A(C   0,C   2,H  11)          110.3413         0.325147   
     23. A(H   7,C   2,H  10)          108.7506         0.289163   
     24. A(C   0,C   2,H   7)          111.0279         0.325069   
     25. A(H   6,C   5,H   9)          108.5241         0.289181   
     26. A(H   4,C   5,H   6)          108.7482         0.289172   
     27. A(H   4,C   5,H   9)          106.6697         0.288986   
     28. A(C   0,C   5,H   9)          110.4749         0.324937   
     29. A(C   0,C   5,H   6)          111.2777         0.325156   
     30. A(C   0,C   5,H   4)          110.9986         0.324926   
     31. D(H   3,O   1,C   0,C   5)     59.0854         0.019253   
     32. D(H   3,O   1,C   0,H   8)    -60.6198         0.019253   
     33. D(H   3,O   1,C   0,C   2)   -179.1686         0.019253   
     34. D(H   7,C   2,C   0,H   8)   -176.0313         0.011918   
     35. D(H   7,C   2,C   0,C   5)     61.9367         0.011918   
     36. D(H  10,C   2,C   0,C   5)    -59.4215         0.011918   
     37. D(H   7,C   2,C   0,O   1)    -58.4356         0.011918   
     38. D(H  10,C   2,C   0,H   8)     62.6105         0.011918   
     39. D(H  10,C   2,C   0,O   1)   -179.7937         0.011918   
     40. D(H   6,C   5,C   0,C   2)     60.7393         0.011837   
     41. D(H   6,C   5,C   0,O   1)   -179.5327         0.011837   
     42. D(H   4,C   5,C   0,H   8)    177.7069         0.011837   
     43. D(H   4,C   5,C   0,C   2)    -60.5218         0.011837   
     44. D(H   6,C   5,C   0,H   8)    -61.0320         0.011837   
     45. D(H   4,C   5,C   0,O   1)     59.2062         0.011837   
    -----------------------------------------------------------------

Number of atoms                         .... 12
Number of degrees of freedom            .... 45


         *************************************************************
         *                GEOMETRY OPTIMIZATION CYCLE   1            *
         *************************************************************
---------------------------------
CARTESIAN COORDINATES (ANGSTROEM)
---------------------------------
  C     -2.496539   -0.809138    1.196460
  O     -1.105413   -0.891003    0.902893
  C     -3.178348   -2.039363    0.619242
  H     -0.678187   -0.106853    1.287776
  H     -2.916855    0.501918   -0.480951
  C     -3.062055    0.473164    0.604578
  H     -4.130614    0.572190    0.819280
  H     -3.016203   -2.107679   -0.462350
  H     -2.613716   -0.802418    2.285631
  H     -2.542343    1.346161    1.014381
  H     -4.255133   -2.026772    0.813383
  H     -2.755487   -2.949909    1.057457

----------------------------
CARTESIAN COORDINATES (A.U.)
----------------------------
  NO LB      ZA    FRAG     MASS         X           Y           Z
   0 C     6.0000    0    12.011   -4.717774   -1.529049    2.260981
   1 O     8.0000    0    15.999   -2.088928   -1.683752    1.706221
   2 C     6.0000    0    12.011   -6.006206   -3.853837    1.170198
   3 H     1.0000    0     1.008   -1.281587   -0.201923    2.433543
   4 H     1.0000    0     1.008   -5.512057    0.948488   -0.908866
   5 C     6.0000    0    12.011   -5.786445    0.894150    1.142488
   6 H     1.0000    0     1.008   -7.805730    1.081282    1.548214
   7 H     1.0000    0     1.008   -5.699798   -3.982937   -0.873715
   8 H     1.0000    0     1.008   -4.939207   -1.516350    4.319216
   9 H     1.0000    0     1.008   -4.804332    2.543876    1.916903
  10 H     1.0000    0     1.008   -8.041036   -3.830045    1.537072
  11 H     1.0000    0     1.008   -5.207116   -5.574519    1.998303

--------------------------------
INTERNAL COORDINATES (ANGSTROEM)
--------------------------------
 C      0   0   0     0.000000000000     0.00000000     0.00000000
 O      1   0   0     1.424118385033     0.00000000     0.00000000
 C      1   2   0     1.520360735251   108.25732521     0.00000000
 H      2   1   3     0.972393234081   107.53140645   180.83140708
 H      1   2   3     2.170078411044    93.70330422   262.19052646
 C      5   1   2     1.095574652414    40.88091434   234.30933772
 H      6   5   1     1.094404750416   108.74824421   237.26425031
 H      3   1   2     1.095810469353   111.02785406   301.56442203
 H      1   2   3     1.095476914630   108.04666201   118.54877247
 H      6   5   1     1.095519471786   106.66968201   120.40120795
 H      3   1   2     1.094219526959   111.38516688   180.20629754
 H      3   1   2     1.095415805261   110.34128924    59.54679227

---------------------------
INTERNAL COORDINATES (A.U.)
---------------------------
 C      0   0   0     0.000000000000     0.00000000     0.00000000
 O      1   0   0     2.691193729994     0.00000000     0.00000000
 C      1   2   0     2.873065414392   108.25732521     0.00000000
 H      2   1   3     1.837556906890   107.53140645   180.83140708
 H      1   2   3     4.100853886008    93.70330422   262.19052646
 C      5   1   2     2.070336052328    40.88091434   234.30933772
 H      6   5   1     2.068125257949   108.74824421   237.26425031
 H      3   1   2     2.070781681761   111.02785406   301.56442203
 H      1   2   3     2.070151354684   108.04666201   118.54877247
 H      6   5   1     2.070231776053   106.66968201   120.40120795
 H      3   1   2     2.067775236341   111.38516688   180.20629754
 H      3   1   2     2.070035874712   110.34128924    59.54679227

---------------------
BASIS SET INFORMATION
---------------------
There are 3 groups of distinct atoms

 Group   1 Type C   : 7s4p1d contracted to 3s2p1d pattern {511/31/1}
 Group   2 Type O   : 7s4p1d contracted to 3s2p1d pattern {511/31/1}
 Group   3 Type H   : 4s1p contracted to 2s1p pattern {31/1}

Atom   0C    basis set group =>   1
Atom   1O    basis set group =>   2
Atom   2C    basis set group =>   1
Atom   3H    basis set group =>   3
Atom   4H    basis set group =>   3
Atom   5C    basis set group =>   1
Atom   6H    basis set group =>   3
Atom   7H    basis set group =>   3
Atom   8H    basis set group =>   3
Atom   9H    basis set group =>   3
Atom  10H    basis set group =>   3
Atom  11H    basis set group =>   3
---------------------------------
AUXILIARY/J BASIS SET INFORMATION
---------------------------------
There are 3 groups of distinct atoms

 Group   1 Type C   : 12s5p4d2f1g contracted to 6s4p3d1f1g pattern {711111/2111/211/2/1}
 Group   2 Type O   : 12s5p4d2f1g contracted to 6s4p3d1f1g pattern {711111/2111/211/2/1}
 Group   3 Type H   : 5s2p1d contracted to 3s1p1d pattern {311/2/1}

Atom   0C    basis set group =>   1
Atom   1O    basis set group =>   2
Atom   2C    basis set group =>   1
Atom   3H    basis set group =>   3
Atom   4H    basis set group =>   3
Atom   5C    basis set group =>   1
Atom   6H    basis set group =>   3
Atom   7H    basis set group =>   3
Atom   8H    basis set group =>   3
Atom   9H    basis set group =>   3
Atom  10H    basis set group =>   3
Atom  11H    basis set group =>   3
[1770543708.360148] [node213:2936516:0]     ucp_context.c:1234 UCX  WARN  transport 'ib' is not available, please use one or more of: mm, posix, self, shm, sm, sysv, tcp
[1770543708.420458] [node213:2936517:0]     ucp_context.c:1234 UCX  WARN  transport 'ib' is not available, please use one or more of: mm, posix, self, shm, sm, sysv, tcp
[1770543708.489019] [node213:2936520:0]     ucp_context.c:1234 UCX  WARN  transport 'ib' is not available, please use one or more of: mm, posix, self, shm, sm, sysv, tcp
[1770543708.557826] [node213:2936523:0]     ucp_context.c:1234 UCX  WARN  transport 'ib' is not available, please use one or more of: mm, posix, self, shm, sm, sysv, tcp


           ************************************************************
           *        Program running with 4 parallel MPI-processes     *
           *              working on a common directory               *
           ************************************************************
------------------------------------------------------------------------------
                             ORCA STARTUP CALCULATIONS
                           -- RI-GTO INTEGRALS CHOSEN --
------------------------------------------------------------------------------
------------------------------------------------------------------------------
                   ___                                                        
                  /   \      - P O W E R E D   B Y -                         
                 /     \                                                     
                 |  |  |   _    _      __       _____    __    __             
                 |  |  |  | |  | |    /  \     |  _  \  |  |  /  |          
                  \  \/   | |  | |   /    \    | | | |  |  | /  /          
                 / \  \   | |__| |  /  /\  \   | |_| |  |  |/  /          
                |  |  |   |  __  | /  /__\  \  |    /   |      \           
                |  |  |   | |  | | |   __   |  |    \   |  |\   \          
                \     /   | |  | | |  |  |  |  | |\  \  |  | \   \       
                 \___/    |_|  |_| |__|  |__|  |_| \__\ |__|  \__/        
                                                                              
                      - O R C A' S   B I G   F R I E N D -                    
                                      &                                       
                       - I N T E G R A L  F E E D E R -                       
                                                                              
 v1 FN, 2020, v2 2021, v3 2022-2024                                           
------------------------------------------------------------------------------


----------------------
SHARK INTEGRAL PACKAGE
----------------------

Number of atoms                             ...     12
Number of basis functions                   ...     96
Number of shells                            ...     48
Maximum angular momentum                    ...      2
Integral batch strategy                     ... SHARK/LIBINT Hybrid
RI-J (if used) integral strategy            ... SPLIT-RIJ (Revised 2003 algorithm where possible)
Printlevel                                  ...      1
Contraction scheme used                     ... SEGMENTED contraction
Prescreening option                         ... SCHWARTZ
   Thresh                                   ... 1.000e-12
   Tcut                                     ... 1.000e-14
   Tpresel                                  ... 1.000e-14 
Coulomb Range Separation                    ... NOT USED
Exchange Range Separation                   ... NOT USED
Multipole approximations                    ... NOT USED
Finite Nucleus Model                        ... NOT USED
CABS basis                                  ... NOT available
Auxiliary Coulomb fitting basis             ... AVAILABLE
   # of basis functions in Aux-J            ...    284
   # of shells in Aux-J                     ...    100
   Maximum angular momentum in Aux-J        ...      4
Auxiliary J/K fitting basis                 ... NOT available
Auxiliary Correlation fitting basis         ... NOT available
Auxiliary 'external' fitting basis          ... NOT available

Checking pre-screening integrals            ... done (  0.0 sec) Dimension = 48
   => SHARK Basis and OBASIS are compatible. Storing Pre-screening
Shell pair information
Shell pair cut-off parameter TPreSel        ...   1.0e-14
Total number of shell pairs                 ...      1176
Shell pairs after pre-screening             ...      1173
Total number of primitive shell pairs       ...      3992
Primitive shell pairs kept                  ...      3392
          la=0 lb=0:    403 shell pairs
          la=1 lb=0:    448 shell pairs
          la=1 lb=1:    136 shell pairs
          la=2 lb=0:    112 shell pairs
          la=2 lb=1:     64 shell pairs
          la=2 lb=2:     10 shell pairs

Checking whether 4 symmetric matrices of dimension 96 fit in memory
:Max Core in MB      =   1500.00
 MB in use           =      4.79
 MB left             =   1495.21
 MB needed           =      0.14
 Data fit in memory  = YES
Calculating RI/J V-Matrix + Cholesky decomp.... done (  0.0 sec)
Calculating Nuclear repulsion               ... done (  0.0 sec) ENN=    134.888338822820 Eh

Diagonalization of the overlap matrix:
Smallest eigenvalue                        ... 2.381e-03
Time for diagonalization                   ...    0.001 sec
Threshold for overlap eigenvalues          ... 1.000e-07
Number of eigenvalues below threshold      ... 0
Time for construction of square roots      ...    0.000 sec
Total time needed                          ...    0.003 sec

-------------------
DFT GRID GENERATION
-------------------

General Integration Accuracy     IntAcc      ... 4.388
Radial Grid Type                 RadialGrid  ... OptM3 with GC (2021)
Angular Grid (max. ang.)         AngularGrid ... 4 (Lebedev-302)
Angular grid pruning method      GridPruning ... 4 (adaptive)
Weight generation scheme         WeightScheme... mBecke (2022)
Basis function cutoff            BFCut       ... 1.0000e-12
Integration weight cutoff        WCut        ... 1.0000e-14
Partially contracted basis set               ... off
Rotationally invariant grid construction     ... off
Angular grids for H and He will be reduced by one unit

Total number of grid points                  ...    50049
Total number of batches                      ...      788
Average number of points per batch           ...       63
Average number of grid points per atom       ...     4171

--------------------
COSX GRID GENERATION
--------------------

GRIDX 1
-------
General Integration Accuracy     IntAcc      ... 3.816
Radial Grid Type                 RadialGrid  ... OptM3 with GC (2021)
Angular Grid (max. ang.)         AngularGrid ... 1 (Lebedev-50)
Angular grid pruning method      GridPruning ... 4 (adaptive)
Weight generation scheme         WeightScheme... mBecke (2022)
Basis function cutoff            BFCut       ... 1.0000e-12
Integration weight cutoff        WCut        ... 1.0000e-14
Partially contracted basis set               ... on
Rotationally invariant grid construction     ... off
Angular grids for H and He will be reduced by one unit

Total number of grid points                  ...     6461
Total number of batches                      ...       58
Average number of points per batch           ...      111
Average number of grid points per atom       ...      538
UseSFitting                                  ... on

GRIDX 2
-------
General Integration Accuracy     IntAcc      ... 4.020
Radial Grid Type                 RadialGrid  ... OptM3 with GC (2021)
Angular Grid (max. ang.)         AngularGrid ... 2 (Lebedev-110)
Angular grid pruning method      GridPruning ... 4 (adaptive)
Weight generation scheme         WeightScheme... mBecke (2022)
Basis function cutoff            BFCut       ... 1.0000e-12
Integration weight cutoff        WCut        ... 1.0000e-14
Partially contracted basis set               ... on
Rotationally invariant grid construction     ... off
Angular grids for H and He will be reduced by one unit

Total number of grid points                  ...    13462
Total number of batches                      ...      110
Average number of points per batch           ...      122
Average number of grid points per atom       ...     1122
UseSFitting                                  ... on

GRIDX 3
-------
General Integration Accuracy     IntAcc      ... 4.338
Radial Grid Type                 RadialGrid  ... OptM3 with GC (2021)
Angular Grid (max. ang.)         AngularGrid ... 3 (Lebedev-194)
Angular grid pruning method      GridPruning ... 4 (adaptive)
Weight generation scheme         WeightScheme... mBecke (2022)
Basis function cutoff            BFCut       ... 1.0000e-12
Integration weight cutoff        WCut        ... 1.0000e-14
Partially contracted basis set               ... on
Rotationally invariant grid construction     ... off
Angular grids for H and He will be reduced by one unit

Total number of grid points                  ...    29491
Total number of batches                      ...      238
Average number of points per batch           ...      123
Average number of grid points per atom       ...     2458
UseSFitting                                  ... on
Grids setup in   0.4 sec
Initializing property integral containers    ... done (  0.0 sec)

SHARK setup successfully completed in   0.5 seconds

Maximum memory used throughout the entire STARTUP-calculation: 15.3 MB
[1770543710.504164] [node213:2936536:0]     ucp_context.c:1234 UCX  WARN  transport 'ib' is not available, please use one or more of: mm, posix, self, shm, sm, sysv, tcp
[1770543710.563793] [node213:2936537:0]     ucp_context.c:1234 UCX  WARN  transport 'ib' is not available, please use one or more of: mm, posix, self, shm, sm, sysv, tcp
[1770543710.633432] [node213:2936540:0]     ucp_context.c:1234 UCX  WARN  transport 'ib' is not available, please use one or more of: mm, posix, self, shm, sm, sysv, tcp
[1770543710.701698] [node213:2936543:0]     ucp_context.c:1234 UCX  WARN  transport 'ib' is not available, please use one or more of: mm, posix, self, shm, sm, sysv, tcp


           ************************************************************
           *        Program running with 4 parallel MPI-processes     *
           *              working on a common directory               *
           ************************************************************
-------------------------------------------------------------------------------
                                 ORCA GUESS
                   Start orbitals & Density for SCF / CASSCF
-------------------------------------------------------------------------------

------------
SCF SETTINGS
------------
Hamiltonian:
 Density Functional     Method          .... DFT(GTOs)
 Exchange Functional    Exchange        .... B88
   X-Alpha parameter    XAlpha          ....  0.666667
   Becke's b parameter  XBeta           ....  0.004200
 Correlation Functional Correlation     .... LYP
 LDA part of GGA corr.  LDAOpt          .... VWN-5
 Gradients option       PostSCFGGA      .... off
 Hybrid DFT is turned on
   Fraction HF Exchange ScalHFX         ....  0.200000
   Scaling of DF-GGA-X  ScalDFX         ....  0.720000
   Scaling of DF-GGA-C  ScalDFC         ....  0.810000
   Scaling of DF-LDA-C  ScalLDAC        ....  1.000000
   Perturbative correction              ....  0.000000
   NL short-range parameter             ....  4.800000
 RI-approximation to the Coulomb term is turned on
   Number of AuxJ basis functions       .... 284
   RIJ-COSX (HFX calculated with COS-X)).... on


General Settings:
 Integral files         IntName         .... IPA_G
 Hartree-Fock type      HFTyp           .... RHF
 Total Charge           Charge          ....    0
 Multiplicity           Mult            ....    1
 Number of Electrons    NEL             ....   34
 Basis Dimension        Dim             ....   96
 Nuclear Repulsion      ENuc            ....    134.8883388228 Eh

Convergence Acceleration:
 AO-DIIS                CNVDIIS         .... on
   Start iteration      DIISMaxIt       ....    12
   Startup error        DIISStart       ....  0.200000
   # of expansion vecs  DIISMaxEq       ....     5
   Bias factor          DIISBfac        ....   1.050
   Max. coefficient     DIISMaxC        ....  10.000
 MO-DIIS                CNVKDIIS        .... off
 Trust-Rad. Augm. Hess. CNVTRAH         .... auto
   Auto Start mean grad. ratio tolernc. ....  1.125000
   Auto Start start iteration           ....    50
   Auto Start num. interpolation iter.  ....    10
   Max. Number of Micro iterations      ....    24
   Max. Number of Macro iterations      .... Maxiter - #DIIS iter
   Number of Davidson start vectors     ....     2
   Converg. threshold    (grad. norm)   ....   2.000e-06
   Grad. Scal. Fac. for Micro threshold ....   0.100
   Minimum threshold for Micro iter.    ....   1.000e-02
   NR start threshold (gradient norm)   ....   1.000e-04
   Initial trust radius                 ....   0.400
   Minimum AH scaling param. (alpha)    ....   1.000
   Maximum AH scaling param. (alpha)    .... 1000.000
   Quad. conv. algorithm                .... NR
   White noise on init. David. guess    .... on
   Maximum white noise                  ....   0.010
   Pseudo random numbers                .... off
   Inactive MOs                         .... canonical
   Orbital update algorithm             .... Taylor
   Preconditioner                       .... Diag
   Full preconditioner red. dimension   ....   250
 SOSCF                 CNVSOSCF           .... on
   Start iteration     SOSCFMaxIt         ....   150
   Startup grad/error  SOSCFStart         ....  0.003300
   Hessian update      SOSCFHessUp        .... L-BFGS
   Autom. constraints  SOSCFAutoConstrain .... off
 Level Shifting         CNVShift        .... on
   Level shift para.    LevelShift      ....    0.2500
   Turn off err/grad.   ShiftErr        ....    0.0010
 Zerner damping         CNVZerner       .... off
 Static damping         CNVDamp         .... on
   Fraction old density DampFac         ....    0.7000
   Max. Damping (<1)    DampMax         ....    0.9800
   Min. Damping (>=0)   DampMin         ....    0.0000
   Turn off err/grad.   DampErr         ....    0.1000

SCF Procedure:
 Maximum # iterations   MaxIter         ....   125
 SCF integral mode      SCFMode         .... Direct
   Integral package                     .... SHARK and LIBINT hybrid scheme
 Reset frequency        DirectResetFreq ....    20
 Integral Threshold     Thresh          ....  1.000e-12 Eh
 Primitive CutOff       TCut            ....  1.000e-14 Eh

Convergence Tolerance:
 Convergence Check Mode ConvCheckMode   .... Total+1el-Energy
 Convergence forced     ConvForced      .... 0
 Energy Change          TolE            ....  1.000e-09 Eh
 1-El. energy change                    ....  1.000e-06 Eh
 Orbital Gradient       TolG            ....  2.000e-06
 Orbital Rotation angle TolX            ....  2.000e-06
 DIIS Error             TolErr          ....  1.000e-08

------------------------------
INITIAL GUESS: MODEL POTENTIAL
------------------------------
Loading Hartree-Fock densities                     ... done
Calculating cut-offs                               ... done
Initializing the effective Hamiltonian             ... done
Setting up the integral package (SHARK)            ... done
Starting the Coulomb interaction                   ... done (   0.0 sec)
Making the grid                                    ... done (   0.1 sec)
Mapping shells                                     ... done
Starting the XC term evaluation                    ... done (   0.0 sec)
  promolecular density results
     # of electrons  =     33.999081830
     EX              =    -25.994137682
     EC              =     -1.104865921
     EX+EC           =    -27.099003603
Transforming the Hamiltonian                       ... done (   0.0 sec)
Diagonalizing the Hamiltonian                      ... done (   0.0 sec)
Back transforming the eigenvectors                 ... done (   0.0 sec)
Now organizing SCF variables                       ... done
                      ------------------
                      INITIAL GUESS DONE (   0.1 sec)
                      ------------------
             **** ENERGY FILE WAS UPDATED (IPA_G.en.tmp) ****
Finished Guess after   0.6 sec
Maximum memory used throughout the entire GUESS-calculation: 7.2 MB
[1770543712.294134] [node213:2936556:0]     ucp_context.c:1234 UCX  WARN  transport 'ib' is not available, please use one or more of: mm, posix, self, shm, sm, sysv, tcp
[1770543712.354868] [node213:2936557:0]     ucp_context.c:1234 UCX  WARN  transport 'ib' is not available, please use one or more of: mm, posix, self, shm, sm, sysv, tcp
[1770543712.423354] [node213:2936560:0]     ucp_context.c:1234 UCX  WARN  transport 'ib' is not available, please use one or more of: mm, posix, self, shm, sm, sysv, tcp
[1770543712.491664] [node213:2936563:0]     ucp_context.c:1234 UCX  WARN  transport 'ib' is not available, please use one or more of: mm, posix, self, shm, sm, sysv, tcp


           ************************************************************
           *        Program running with 4 parallel MPI-processes     *
           *              working on a common directory               *
           ************************************************************

-------------------------------------------------------------------------------------------
                                      ORCA LEAN-SCF
                              memory conserving SCF solver
-------------------------------------------------------------------------------------------

----------------------------------------D-I-I-S--------------------------------------------
Iteration    Energy (Eh)           Delta-E    RMSDP     MaxDP     DIISErr   Damp  Time(sec)
-------------------------------------------------------------------------------------------
               ***  Starting incremental Fock matrix formation  ***
    1    -193.9153260245506942     0.00e+00  1.00e-02  8.02e-02  2.49e-01  0.700   0.4
    2    -193.9971509679646999    -8.18e-02  6.88e-03  4.94e-02  1.06e-01  0.700   0.3
                               ***Turning on AO-DIIS***
    3    -194.0291132872862079    -3.20e-02  2.55e-03  1.51e-02  3.49e-02  0.700   0.3
    4    -194.0477898889770643    -1.87e-02  4.02e-03  2.10e-02  1.62e-02  0.000   0.3
    5    -194.0887878044102592    -4.10e-02  8.03e-04  4.61e-03  6.20e-03  0.000   0.3
                              *** Initializing SOSCF ***
---------------------------------------S-O-S-C-F--------------------------------------
Iteration    Energy (Eh)           Delta-E    RMSDP     MaxDP     MaxGrad    Time(sec)
--------------------------------------------------------------------------------------
    6    -194.0890020941158411    -2.14e-04  3.28e-04  1.74e-03  2.33e-03     0.3
               *** Restarting incremental Fock matrix formation ***
    7    -194.0891328391549848    -1.31e-04  1.98e-04  1.10e-03  2.31e-04     0.4
    8    -194.0891330288500569    -1.90e-07  6.56e-05  6.43e-04  1.93e-04     0.4
    9    -194.0891347847245640    -1.76e-06  2.77e-05  1.42e-04  3.41e-05     0.4
   10    -194.0891347716755320     1.30e-08  1.08e-05  7.78e-05  4.30e-05     0.4
   11    -194.0891348190417318    -4.74e-08  2.25e-06  1.34e-05  2.16e-06     0.3
   12    -194.0891348188808081     1.61e-10  6.89e-07  4.02e-06  1.49e-06     0.3
                 **** Energy Check signals convergence ****

               *****************************************************
               *                     SUCCESS                       *
               *           SCF CONVERGED AFTER  12 CYCLES          *
               *****************************************************

Recomputing exchange energy using gridx3       ... done (    0.570 sec)
Old exchange energy                            :     -5.322081833 Eh
New exchange energy                            :     -5.322050921 Eh
Exchange energy change after final integration :      0.000030912 Eh
Total energy after final integration           :   -194.089103907 Eh
             **** ENERGY FILE WAS UPDATED (IPA_G.en.tmp) ****

----------------
TOTAL SCF ENERGY
----------------

Total Energy       :       -194.08910390666156 Eh           -5281.43302 eV

Components:
Nuclear Repulsion  :        134.88833882282009 Eh            3670.49830 eV
Electronic Energy  :       -328.97747364188217 Eh           -8951.93217 eV
One Electron Energy:       -529.60506503612407 Eh          -14411.28648 eV
Two Electron Energy:        200.62759139424193 Eh            5459.35431 eV

Virial components:
Potential Energy   :       -386.29243655217300 Eh          -10511.55160 eV
Kinetic Energy     :        192.20333264551144 Eh            5230.11858 eV
Virial Ratio       :          2.00981133487747

DFT components:
N(Alpha)           :       17.000014507505 electrons
N(Beta)            :       17.000014507505 electrons
N(Total)           :       34.000029015011 electrons
E(X)               :      -21.106518055599 Eh       
E(C)               :       -1.311922469734 Eh       
E(XC)              :      -22.418440525334 Eh       

---------------
SCF CONVERGENCE
---------------

  Last Energy change         ...   -1.6092e-10  Tolerance :   1.0000e-09
  Last MAX-Density change    ...    4.0182e-06  Tolerance :   1.0000e-08
  Last RMS-Density change    ...    6.8944e-07  Tolerance :   1.0000e-09
  Last DIIS Error            ...    2.3285e-03  Tolerance :   1.0000e-08
  Last Orbital Gradient      ...    1.4872e-06  Tolerance :   2.0000e-06
  Last Orbital Rotation      ...    1.1764e-06  Tolerance :   2.0000e-06


----------------
ORBITAL ENERGIES
----------------

  NO   OCC          E(Eh)            E(eV) 
   0   2.0000     -19.115882      -520.1696 
   1   2.0000     -10.226705      -278.2828 
   2   2.0000     -10.173487      -276.8347 
   3   2.0000     -10.170051      -276.7411 
   4   2.0000      -0.995104       -27.0782 
   5   2.0000      -0.758676       -20.6446 
   6   2.0000      -0.679595       -18.4927 
   7   2.0000      -0.576338       -15.6829 
   8   2.0000      -0.506191       -13.7742 
   9   2.0000      -0.447576       -12.1792 
  10   2.0000      -0.430743       -11.7211 
  11   2.0000      -0.386441       -10.5156 
  12   2.0000      -0.379434       -10.3249 
  13   2.0000      -0.363135        -9.8814 
  14   2.0000      -0.351127        -9.5546 
  15   2.0000      -0.315155        -8.5758 
  16   2.0000      -0.261101        -7.1049 
  17   0.0000       0.046567         1.2671 
  18   0.0000       0.090488         2.4623 
  19   0.0000       0.106759         2.9051 
  20   0.0000       0.118480         3.2240 
  21   0.0000       0.120075         3.2674 
  22   0.0000       0.143022         3.8918 
  23   0.0000       0.162829         4.4308 
  24   0.0000       0.170445         4.6381 
  25   0.0000       0.216107         5.8806 
  26   0.0000       0.234176         6.3723 
  27   0.0000       0.252587         6.8732 
*Only the first 10 virtual orbitals were printed.

                    ********************************
                    * MULLIKEN POPULATION ANALYSIS *
                    ********************************

-----------------------
MULLIKEN ATOMIC CHARGES
-----------------------
   0 C :    0.087535
   1 O :   -0.316732
   2 C :    0.037651
   3 H :    0.157918
   4 H :    0.010990
   5 C :    0.021401
   6 H :    0.002184
   7 H :    0.008999
   8 H :   -0.019386
   9 H :   -0.007808
  10 H :    0.004800
  11 H :    0.012448
Sum of atomic charges:   -0.0000000

--------------------------------
MULLIKEN REDUCED ORBITAL CHARGES
--------------------------------
  0 C s       :     3.054577  s :     3.054577
      pz      :     0.997039  p :     2.784896
      px      :     0.764769
      py      :     1.023088
      dz2     :     0.016749  d :     0.072992
      dxz     :     0.012922
      dyz     :     0.007025
      dx2y2   :     0.020303
      dxy     :     0.015993

  1 O s       :     3.735003  s :     3.735003
      pz      :     1.780110  p :     4.569040
      px      :     1.273137
      py      :     1.515793
      dz2     :     0.001485  d :     0.012689
      dxz     :     0.002408
      dyz     :     0.002278
      dx2y2   :     0.003859
      dxy     :     0.002659

  2 C s       :     2.980545  s :     2.980545
      pz      :     1.007805  p :     2.954141
      px      :     0.962458
      py      :     0.983878
      dz2     :     0.008722  d :     0.027664
      dxz     :     0.002219
      dyz     :     0.004800
      dx2y2   :     0.007501
      dxy     :     0.004422

  3 H s       :     0.774817  s :     0.774817
      pz      :     0.020593  p :     0.067265
      px      :     0.018266
      py      :     0.028406

  4 H s       :     0.965773  s :     0.965773
      pz      :     0.013948  p :     0.023238
      px      :     0.005036
      py      :     0.004254

  5 C s       :     2.988261  s :     2.988261
      pz      :     1.004985  p :     2.962262
      px      :     0.984328
      py      :     0.972948
      dz2     :     0.008924  d :     0.028076
      dxz     :     0.002273
      dyz     :     0.004641
      dx2y2   :     0.007199
      dxy     :     0.005039

  6 H s       :     0.974337  s :     0.974337
      pz      :     0.005250  p :     0.023479
      px      :     0.013665
      py      :     0.004564

  7 H s       :     0.967560  s :     0.967560
      pz      :     0.013870  p :     0.023441
      px      :     0.005168
      py      :     0.004403

  8 H s       :     0.999574  s :     0.999574
      pz      :     0.013771  p :     0.019812
      px      :     0.002179
      py      :     0.003862

  9 H s       :     0.984287  s :     0.984287
      pz      :     0.006249  p :     0.023521
      px      :     0.006811
      py      :     0.010460

 10 H s       :     0.971739  s :     0.971739
      pz      :     0.005296  p :     0.023460
      px      :     0.013720
      py      :     0.004444

 11 H s       :     0.964162  s :     0.964162
      pz      :     0.006354  p :     0.023390
      px      :     0.006330
      py      :     0.010706



                     *******************************
                     * LOEWDIN POPULATION ANALYSIS *
                     *******************************

----------------------
LOEWDIN ATOMIC CHARGES
----------------------
   0 C :    0.059883
   1 O :   -0.149876
   2 C :   -0.055030
   3 H :    0.073964
   4 H :    0.023954
   5 C :   -0.065937
   6 H :    0.022494
   7 H :    0.024861
   8 H :    0.001213
   9 H :    0.014865
  10 H :    0.024131
  11 H :    0.025478

-------------------------------
LOEWDIN REDUCED ORBITAL CHARGES
-------------------------------
  0 C s       :     2.842918  s :     2.842918
      pz      :     1.048301  p :     2.936907
      px      :     0.840246
      py      :     1.048360
      dz2     :     0.038943  d :     0.160292
      dxz     :     0.028090
      dyz     :     0.015993
      dx2y2   :     0.042489
      dxy     :     0.034776

  1 O s       :     3.457465  s :     3.457465
      pz      :     1.781680  p :     4.668555
      px      :     1.321766
      py      :     1.565109
      dz2     :     0.002288  d :     0.023857
      dxz     :     0.004208
      dyz     :     0.003774
      dx2y2   :     0.007811
      dxy     :     0.005775

  2 C s       :     2.842388  s :     2.842388
      pz      :     1.062299  p :     3.141598
      px      :     1.047847
      py      :     1.031451
      dz2     :     0.021759  d :     0.071044
      dxz     :     0.005560
      dyz     :     0.012078
      dx2y2   :     0.019561
      dxy     :     0.012086

  3 H s       :     0.749816  s :     0.749816
      pz      :     0.056913  p :     0.176220
      px      :     0.042014
      py      :     0.077292

  4 H s       :     0.910473  s :     0.910473
      pz      :     0.040420  p :     0.065573
      px      :     0.012611
      py      :     0.012542

  5 C s       :     2.847389  s :     2.847389
      pz      :     1.062683  p :     3.145912
      px      :     1.053555
      py      :     1.029674
      dz2     :     0.022366  d :     0.072635
      dxz     :     0.005727
      dyz     :     0.011767
      dx2y2   :     0.019079
      dxy     :     0.013696

  6 H s       :     0.911755  s :     0.911755
      pz      :     0.013564  p :     0.065750
      px      :     0.039063
      py      :     0.013123

  7 H s       :     0.909742  s :     0.909742
      pz      :     0.039948  p :     0.065397
      px      :     0.012763
      py      :     0.012687

  8 H s       :     0.933386  s :     0.933386
      pz      :     0.041448  p :     0.065402
      px      :     0.010869
      py      :     0.013085

  9 H s       :     0.920080  s :     0.920080
      pz      :     0.016229  p :     0.065055
      px      :     0.018058
      py      :     0.030768

 10 H s       :     0.910759  s :     0.910759
      pz      :     0.013521  p :     0.065110
      px      :     0.038840
      py      :     0.012749

 11 H s       :     0.909226  s :     0.909226
      pz      :     0.016655  p :     0.065296
      px      :     0.016424
      py      :     0.032217



                      *****************************
                      * MAYER POPULATION ANALYSIS *
                      *****************************

  NA   - Mulliken gross atomic population
  ZA   - Total nuclear charge
  QA   - Mulliken gross atomic charge
  VA   - Mayer's total valence
  BVA  - Mayer's bonded valence
  FA   - Mayer's free valence

  ATOM       NA         ZA         QA         VA         BVA        FA
  0 C      5.9125     6.0000     0.0875     4.2390     4.2390    -0.0000
  1 O      8.3167     8.0000    -0.3167     2.0641     2.0641    -0.0000
  2 C      5.9623     6.0000     0.0377     3.9518     3.9518    -0.0000
  3 H      0.8421     1.0000     0.1579     1.0199     1.0199    -0.0000
  4 H      0.9890     1.0000     0.0110     1.0016     1.0016     0.0000
  5 C      5.9786     6.0000     0.0214     3.9627     3.9627    -0.0000
  6 H      0.9978     1.0000     0.0022     0.9919     0.9919    -0.0000
  7 H      0.9910     1.0000     0.0090     1.0020     1.0020    -0.0000
  8 H      1.0194     1.0000    -0.0194     0.9638     0.9638    -0.0000
  9 H      1.0078     1.0000    -0.0078     0.9918     0.9918    -0.0000
 10 H      0.9952     1.0000     0.0048     0.9893     0.9893    -0.0000
 11 H      0.9876     1.0000     0.0124     0.9941     0.9941    -0.0000

  Mayer bond orders larger than 0.100000
B(  0-C ,  1-O ) :   1.0333 B(  0-C ,  2-C ) :   1.0814 B(  0-C ,  5-C ) :   1.0797 
B(  0-C ,  8-H ) :   0.9336 B(  1-O ,  3-H ) :   0.9800 B(  2-C ,  7-H ) :   0.9611 
B(  2-C , 10-H ) :   0.9648 B(  2-C , 11-H ) :   0.9608 B(  4-H ,  5-C ) :   0.9619 
B(  5-C ,  6-H ) :   0.9557 B(  5-C ,  9-H ) :   0.9602 

-------
TIMINGS
-------

Total SCF time: 0 days 0 hours 0 min 5 sec 

Total time                  ....       5.583 sec
Sum of individual times     ....       5.257 sec  ( 94.2%)

SCF preparation             ....       0.567 sec  ( 10.2%)
Fock matrix formation       ....       4.534 sec  ( 81.2%)
  Startup                   ....       0.009 sec  (  0.2% of F)
  Split-RI-J                ....       0.310 sec  (  6.8% of F)
  Chain of spheres X        ....       3.243 sec  ( 71.5% of F)
  XC integration            ....       1.121 sec  ( 24.7% of F)
    XC Preparation          ....       0.000 sec  (  0.0% of XC)
    Basis function eval.    ....       0.421 sec  ( 37.5% of XC)
    Density eval.           ....       0.202 sec  ( 18.0% of XC)
    XC-Functional eval.     ....       0.082 sec  (  7.3% of XC)
    XC-Potential eval.      ....       0.259 sec  ( 23.1% of XC)
Diagonalization             ....       0.000 sec  (  0.0%)
Density matrix formation    ....       0.036 sec  (  0.6%)
Total Energy calculation    ....       0.007 sec  (  0.1%)
Population analysis         ....       0.014 sec  (  0.3%)
Orbital Transformation      ....       0.020 sec  (  0.4%)
Orbital Orthonormalization  ....       0.000 sec  (  0.0%)
DIIS solution               ....       0.049 sec  (  0.9%)
SOSCF solution              ....       0.029 sec  (  0.5%)
Finished LeanSCF after   5.6 sec

Maximum memory used throughout the entire LEANSCF-calculation: 9.0 MB
[1770543719.033726] [node213:2936577:0]     ucp_context.c:1234 UCX  WARN  transport 'ib' is not available, please use one or more of: mm, posix, self, shm, sm, sysv, tcp
[1770543719.095032] [node213:2936578:0]     ucp_context.c:1234 UCX  WARN  transport 'ib' is not available, please use one or more of: mm, posix, self, shm, sm, sysv, tcp
[1770543719.162740] [node213:2936581:0]     ucp_context.c:1234 UCX  WARN  transport 'ib' is not available, please use one or more of: mm, posix, self, shm, sm, sysv, tcp
[1770543719.232128] [node213:2936584:0]     ucp_context.c:1234 UCX  WARN  transport 'ib' is not available, please use one or more of: mm, posix, self, shm, sm, sysv, tcp


           ************************************************************
           *        Program running with 4 parallel MPI-processes     *
           *              working on a common directory               *
           ************************************************************

------------------------------------------------------------------------------
                         ORCA PROPERTY INTEGRAL CALCULATIONS
------------------------------------------------------------------------------

GBWName                                   ... IPA_G.gbw
Number of atoms                           ...     12
Number of basis functions                 ...     96
Max core memory                           ...   1500 MB

Dipole integrals                          ... YES
Quadrupole integrals                      ...  NO
Linear momentum integrals                 ...  NO
Angular momentum integrals                ...  NO
Higher moments length integrals           ...  NO
Higher moments velocity integrals         ...  NO
Kinetic energy integrals                  ...  NO
GIAO right hand sides                     ...  NO
GIAO dipole derivative integrals          ...  NO
SOC integrals                             ...  NO
EPR diamagnetic integrals (GIAO)          ...  NO
EPR gauge integrals                       ...  NO
Field gradient integrals                  ...  NO (   0 nuclei)
Spin-dipole/Fermi contact integrals       ...  NO (   0 nuclei)
Contact density integrals                 ...  NO (   0 nuclei)
Nucleus-orbit integrals                   ...  NO (   0 nuclei)
Geometric perturbations                   ...  NO (  12 nuclei)

Choice of electric origin   ... Center of mass
Position of electric origin ... ( -4.5821, -1.5220,  1.5691) 
Choice of magnetic origin   ... GIAO
Position of magnetic origin ... (  0.0000,  0.0000,  0.0000) 

Calculating integrals                     ... Electric Dipole (Length)     done (  0.0 sec)

Property integrals calculated in   0.0 sec

Maximum memory used throughout the entire PROPINT-calculation: 7.4 MB

-------------------------   --------------------
FINAL SINGLE POINT ENERGY      -194.089103906662
-------------------------   --------------------

[1770543720.708751] [node213:2936597:0]     ucp_context.c:1234 UCX  WARN  transport 'ib' is not available, please use one or more of: mm, posix, self, shm, sm, sysv, tcp
[1770543720.769277] [node213:2936598:0]     ucp_context.c:1234 UCX  WARN  transport 'ib' is not available, please use one or more of: mm, posix, self, shm, sm, sysv, tcp
[1770543720.837267] [node213:2936601:0]     ucp_context.c:1234 UCX  WARN  transport 'ib' is not available, please use one or more of: mm, posix, self, shm, sm, sysv, tcp
[1770543720.905685] [node213:2936604:0]     ucp_context.c:1234 UCX  WARN  transport 'ib' is not available, please use one or more of: mm, posix, self, shm, sm, sysv, tcp


           ************************************************************
           *        Program running with 4 parallel MPI-processes     *
           *              working on a common directory               *
           ************************************************************
------------------------------------------------------------------------------
                         ORCA SCF GRADIENT CALCULATION
------------------------------------------------------------------------------

Nuc. rep. gradient        (SHARK) ... done (  0.0 sec)
HCore & Overlap gradient  (SHARK) ... done (  0.0 sec)
Split-RIJ-J gradient      (SHARK) ... done (  0.1 sec)
done (  2.8 sec)
XC gradient                       ... done (  0.7 sec)

------------------
CARTESIAN GRADIENT
------------------

   1   C   :   -0.005961229   -0.002873351    0.011910758
   2   O   :   -0.004440296    0.000212076   -0.000944534
   3   C   :   -0.005903309    0.002802845   -0.002971069
   4   H   :    0.002529319    0.005435751    0.002731308
   5   H   :   -0.000193908    0.002395842    0.004390518
   6   C   :    0.000886666   -0.000782693   -0.002647502
   7   H   :    0.005116670   -0.002357733   -0.000932420
   8   H   :   -0.000398883   -0.002337857    0.004460189
   9   H   :    0.005911006   -0.000134501   -0.008763502
  10   H   :   -0.000791495   -0.005217146   -0.003418308
  11   H   :    0.004246966   -0.000611054   -0.001208248
  12   H   :   -0.001001506    0.003467819   -0.002607189

Difference to translation invariance:
           :    0.0000000000   -0.0000000001   -0.0000000000

Difference to rotation invariance:
           :   -0.0000475148    0.0000934785    0.0000480367

Norm of the Cartesian gradient     ...    0.0241623906
RMS gradient                       ...    0.0040270651
MAX gradient                       ...    0.0119107575

-------
TIMINGS
-------

Total SCF gradient time     ....        3.639 sec

Densities                   ....       0.000 sec  (  0.0%)
One electron gradient       ....       0.020 sec  (  0.6%)
RI-J Coulomb gradient       ....       0.136 sec  (  3.7%)
COSX gradient               ....       2.830 sec  ( 77.8%)
XC gradient                 ....       0.652 sec  ( 17.9%)

Maximum memory used throughout the entire SCFGRAD-calculation: 11.5 MB
------------------------------------------------------------------------------
                         ORCA GEOMETRY RELAXATION STEP
------------------------------------------------------------------------------

Reading the OPT-File                    .... done
Getting information on internals        .... done
Copying old internal coords+grads       .... done
Making the new internal coordinates     .... (2022 redundants) done
Validating the new internal coordinates .... (2022 redundants) done
Calculating the B-matrix                .... done
Calculating the G,G- and P matrices     .... done
Transforming gradient to internals      .... done
Projecting the internal gradient        .... done
Number of atoms                         ....  12
Number of internal coordinates          ....  45
Current Energy                          ....  -194.089103907 Eh
Current gradient norm                   ....     0.024162391 Eh/bohr
Maximum allowed component of the step   ....  0.300
Current trust radius                    ....  0.300
Evaluating the initial hessian          ....  (Almloef) done
Projecting the Hessian                  .... done
Forming the augmented Hessian           .... done
Diagonalizing the augmented Hessian     .... done
Last element of RFO vector              ....  0.996261330
Lowest eigenvalues of augmented Hessian:
 -0.001668031  0.011837390  0.011935759  0.019252816  0.104326021
Length of the computed step             ....  0.086714954
The final length of the internal step   ....  0.086714954
Converting the step to Cartesian space:
 Initial RMS(Int)=    0.0129267021
Transforming coordinates:
 Iter   0:  RMS(Cart)=    0.0224773526 RMS(Int)=    1.3216051283
done
Storing new coordinates                 .... done

                                .--------------------.
          ----------------------|Geometry convergence|-------------------------
          Item                value                   Tolerance       Converged
          ---------------------------------------------------------------------
          RMS gradient        0.0033832072            0.0000300000      NO
          MAX gradient        0.0093454538            0.0001000000      NO
          RMS step            0.0129267021            0.0006000000      NO
          MAX step            0.0280900049            0.0010000000      NO
          -------------------------------------------------------------------------
          ........................................................
          Max(Bonds)      0.0139      Max(Angles)    1.35
          Max(Dihed)        1.61      Max(Improp)    0.00
          ---------------------------------------------------------------------

The optimization has not yet converged - more geometry cycles are needed


    ---------------------------------------------------------------------------
                         Redundant Internal Coordinates
                            (Angstroem and degrees)

        Definition                    Value    dE/dq     Step     New-Value
    ----------------------------------------------------------------------------
     1. B(O   1,C   0)                1.4241 -0.002563  0.0027    1.4269   
     2. B(C   2,C   0)                1.5204 -0.000431  0.0006    1.5209   
     3. B(H   3,O   1)                0.9724  0.006576 -0.0070    0.9654   
     4. B(C   5,H   4)                1.0956 -0.004313  0.0064    1.1020   
     5. B(C   5,C   0)                1.5213 -0.005877  0.0080    1.5294   
     6. B(H   6,C   5)                1.0944 -0.005394  0.0080    1.1024   
     7. B(H   7,C   2)                1.0958 -0.004314  0.0064    1.1023   
     8. B(H   8,C   0)                1.0955 -0.009345  0.0139    1.1094   
     9. B(H   9,C   5)                1.0955 -0.005811  0.0087    1.1042   
    10. B(H  10,C   2)                1.0942 -0.004401  0.0065    1.1008   
    11. B(H  11,C   2)                1.0954 -0.004314  0.0064    1.1019   
    12. A(O   1,C   0,C   2)          108.26  0.007049   -1.22    107.04   
    13. A(O   1,C   0,H   8)          108.05 -0.002946    0.83    108.88   
    14. A(O   1,C   0,C   5)          109.35 -0.004882    1.35    110.71   
    15. A(C   5,C   0,H   8)          109.99  0.003664   -0.78    109.21   
    16. A(C   2,C   0,C   5)          111.57 -0.004034    0.65    112.22   
    17. A(C   2,C   0,H   8)          109.54  0.001184   -0.83    108.71   
    18. A(C   0,O   1,H   3)          107.53 -0.000747    0.12    107.65   
    19. A(C   0,C   2,H  10)          111.39  0.001041   -0.25    111.14   
    20. A(H  10,C   2,H  11)          108.57  0.000358    0.04    108.61   
    21. A(H   7,C   2,H  11)          106.61 -0.002296    0.56    107.17   
    22. A(C   0,C   2,H  11)          110.34 -0.000683    0.22    110.56   
    23. A(H   7,C   2,H  10)          108.75 -0.001113   -0.02    108.74   
    24. A(C   0,C   2,H   7)          111.03  0.002507   -0.51    110.52   
    25. A(H   6,C   5,H   9)          108.52  0.002979   -0.52    108.00   
    26. A(H   4,C   5,H   6)          108.75 -0.000090   -0.11    108.64   
    27. A(H   4,C   5,H   9)          106.67 -0.002523    0.56    107.23   
    28. A(C   0,C   5,H   9)          110.47 -0.001340    0.30    110.77   
    29. A(C   0,C   5,H   6)          111.28 -0.001959    0.32    111.59   
    30. A(C   0,C   5,H   4)          111.00  0.002950   -0.55    110.45   
    31. D(H   3,O   1,C   0,C   5)     59.09  0.001130   -0.17     58.92   
    32. D(H   3,O   1,C   0,H   8)    -60.62  0.001259   -0.50    -61.12   
    33. D(H   3,O   1,C   0,C   2)   -179.17 -0.002399    0.69   -178.48   
    34. D(H   7,C   2,C   0,H   8)   -176.03  0.001253   -1.45   -177.48   
    35. D(H   7,C   2,C   0,C   5)     61.94 -0.001511   -0.33     61.61   
    36. D(H  10,C   2,C   0,C   5)    -59.42 -0.002544    0.21    -59.21   
    37. D(H   7,C   2,C   0,O   1)    -58.44  0.002420   -1.61    -60.05   
    38. D(H  10,C   2,C   0,H   8)     62.61  0.000219   -0.91     61.70   
    39. D(H  10,C   2,C   0,O   1)   -179.79  0.001386   -1.07   -180.86   
    40. D(H   6,C   5,C   0,C   2)     60.74 -0.000302   -0.40     60.34   
    41. D(H   6,C   5,C   0,O   1)   -179.53  0.002740   -0.62   -180.15   
    42. D(H   4,C   5,C   0,H   8)    177.71 -0.002193    1.05    178.75   
    43. D(H   4,C   5,C   0,C   2)    -60.52 -0.000876   -0.10    -60.63   
    44. D(H   6,C   5,C   0,H   8)    -61.03 -0.001619    0.75    -60.28   
    45. D(H   4,C   5,C   0,O   1)     59.21  0.002165   -0.32     58.88   
    ----------------------------------------------------------------------------

Geometry step timings:
Preparation and reading OPT file:      0.000 s ( 2.223 %)
Internal coordinates            :      0.000 s ( 3.801 %)
B/P matrices and projection     :      0.001 s (18.250 %)
Hessian update/contruction      :      0.000 s ( 9.179 %)
Making the step                 :      0.001 s (18.107 %)
Converting the step to Cartesian:      0.000 s ( 4.374 %)
Storing new data                :      0.000 s ( 2.223 %)
Checking convergence            :      0.000 s ( 6.131 %)
Final printing                  :      0.001 s (35.461 %)
Total time                      :      0.003 s
[1770543726.034269] [node213:2936617:0]     ucp_context.c:1234 UCX  WARN  transport 'ib' is not available, please use one or more of: mm, posix, self, shm, sm, sysv, tcp
[1770543726.094813] [node213:2936618:0]     ucp_context.c:1234 UCX  WARN  transport 'ib' is not available, please use one or more of: mm, posix, self, shm, sm, sysv, tcp
[1770543726.162017] [node213:2936621:0]     ucp_context.c:1234 UCX  WARN  transport 'ib' is not available, please use one or more of: mm, posix, self, shm, sm, sysv, tcp
[1770543726.230871] [node213:2936624:0]     ucp_context.c:1234 UCX  WARN  transport 'ib' is not available, please use one or more of: mm, posix, self, shm, sm, sysv, tcp

Time for energy+gradient        :     17.672 s
Time for complete geometry iter :     19.317 s

         *************************************************************
         *                GEOMETRY OPTIMIZATION CYCLE   2            *
         *************************************************************
---------------------------------
CARTESIAN COORDINATES (ANGSTROEM)
---------------------------------
  C     -2.495338   -0.803588    1.190686
  O     -1.102450   -0.914327    0.901690
  C     -3.168303   -2.043264    0.621825
  H     -0.662649   -0.142869    1.280435
  H     -2.921438    0.511510   -0.488628
  C     -3.068586    0.486844    0.603239
  H     -4.145724    0.586040    0.816006
  H     -3.010011   -2.103439   -0.467345
  H     -2.634036   -0.796686    2.291384
  H     -2.555141    1.369907    1.022541
  H     -4.250710   -2.034448    0.821779
  H     -2.736506   -2.955384    1.064166

----------------------------
CARTESIAN COORDINATES (A.U.)
----------------------------
  NO LB      ZA    FRAG     MASS         X           Y           Z
   0 C     6.0000    0    12.011   -4.715506   -1.518561    2.250071
   1 O     8.0000    0    15.999   -2.083329   -1.727827    1.703947
   2 C     6.0000    0    12.011   -5.987225   -3.861209    1.175078
   3 H     1.0000    0     1.008   -1.252226   -0.269982    2.419672
   4 H     1.0000    0     1.008   -5.520718    0.966614   -0.923372
   5 C     6.0000    0    12.011   -5.798788    0.920002    1.139956
   6 H     1.0000    0     1.008   -7.834282    1.107456    1.542029
   7 H     1.0000    0     1.008   -5.688096   -3.974923   -0.883153
   8 H     1.0000    0     1.008   -4.977606   -1.505518    4.330089
   9 H     1.0000    0     1.008   -4.828516    2.588749    1.932322
  10 H     1.0000    0     1.008   -8.032679   -3.844550    1.552937
  11 H     1.0000    0     1.008   -5.171247   -5.584866    2.010983

--------------------------------
INTERNAL COORDINATES (ANGSTROEM)
--------------------------------
 C      0   0   0     0.000000000000     0.00000000     0.00000000
 O      1   0   0     1.426856257460     0.00000000     0.00000000
 C      1   2   0     1.520947817204   107.03279957     0.00000000
 H      2   1   3     0.965412023630   107.65201135   181.52389342
 H      1   2   3     2.175118202136    94.69116340   261.47193878
 C      5   1   2     1.102013157350    41.20799616   233.47156471
 H      6   5   1     1.102422236404   108.64317868   237.29284453
 H      3   1   2     1.102255658258   110.51989286   299.96337336
 H      1   2   3     1.109423525783   108.87299716   117.34467545
 H      6   5   1     1.104192231881   107.23253536   120.79434021
 H      3   1   2     1.100756566974   111.13824606   179.14285314
 H      3   1   2     1.101851761725   110.55913802    58.45548504

---------------------------
INTERNAL COORDINATES (A.U.)
---------------------------
 C      0   0   0     0.000000000000     0.00000000     0.00000000
 O      1   0   0     2.696367559071     0.00000000     0.00000000
 C      1   2   0     2.874174838502   107.03279957     0.00000000
 H      2   1   3     1.824364331056   107.65201135   181.52389342
 H      1   2   3     4.110377710944    94.69116340   261.47193878
 C      5   1   2     2.082503063370    41.20799616   233.47156471
 H      6   5   1     2.083276110749   108.64317868   237.29284453
 H      3   1   2     2.082961323673   110.51989286   299.96337336
 H      1   2   3     2.096506630260   108.87299716   117.34467545
 H      6   5   1     2.086620917459   107.23253536   120.79434021
 H      3   1   2     2.080128451696   111.13824606   179.14285314
 H      3   1   2     2.082198069840   110.55913802    58.45548504

[1770543727.664654] [node213:2936637:0]     ucp_context.c:1234 UCX  WARN  transport 'ib' is not available, please use one or more of: mm, posix, self, shm, sm, sysv, tcp
[1770543727.725960] [node213:2936638:0]     ucp_context.c:1234 UCX  WARN  transport 'ib' is not available, please use one or more of: mm, posix, self, shm, sm, sysv, tcp
[1770543727.794136] [node213:2936641:0]     ucp_context.c:1234 UCX  WARN  transport 'ib' is not available, please use one or more of: mm, posix, self, shm, sm, sysv, tcp
[1770543727.862645] [node213:2936644:0]     ucp_context.c:1234 UCX  WARN  transport 'ib' is not available, please use one or more of: mm, posix, self, shm, sm, sysv, tcp


           ************************************************************
           *        Program running with 4 parallel MPI-processes     *
           *              working on a common directory               *
           ************************************************************
------------------------------------------------------------------------------
                   ___                                                        
                  /   \      - P O W E R E D   B Y -                         
                 /     \                                                     
                 |  |  |   _    _      __       _____    __    __             
                 |  |  |  | |  | |    /  \     |  _  \  |  |  /  |          
                  \  \/   | |  | |   /    \    | | | |  |  | /  /          
                 / \  \   | |__| |  /  /\  \   | |_| |  |  |/  /          
                |  |  |   |  __  | /  /__\  \  |    /   |      \           
                |  |  |   | |  | | |   __   |  |    \   |  |\   \          
                \     /   | |  | | |  |  |  |  | |\  \  |  | \   \       
                 \___/    |_|  |_| |__|  |__|  |_| \__\ |__|  \__/        
                                                                              
                      - O R C A' S   B I G   F R I E N D -                    
                                      &                                       
                       - I N T E G R A L  F E E D E R -                       
                                                                              
 v1 FN, 2020, v2 2021, v3 2022-2024                                           
------------------------------------------------------------------------------


----------------------
SHARK INTEGRAL PACKAGE
----------------------

Number of atoms                             ...     12
Number of basis functions                   ...     96
Number of shells                            ...     48
Maximum angular momentum                    ...      2
Integral batch strategy                     ... SHARK/LIBINT Hybrid
RI-J (if used) integral strategy            ... SPLIT-RIJ (Revised 2003 algorithm where possible)
Printlevel                                  ...      1
Contraction scheme used                     ... SEGMENTED contraction
Prescreening option                         ... SCHWARTZ
   Thresh                                   ... 1.000e-12
   Tcut                                     ... 1.000e-14
   Tpresel                                  ... 1.000e-14 
Coulomb Range Separation                    ... NOT USED
Exchange Range Separation                   ... NOT USED
Multipole approximations                    ... NOT USED
Finite Nucleus Model                        ... NOT USED
CABS basis                                  ... NOT available
Auxiliary Coulomb fitting basis             ... AVAILABLE
   # of basis functions in Aux-J            ...    284
   # of shells in Aux-J                     ...    100
   Maximum angular momentum in Aux-J        ...      4
Auxiliary J/K fitting basis                 ... NOT available
Auxiliary Correlation fitting basis         ... NOT available
Auxiliary 'external' fitting basis          ... NOT available

Checking pre-screening integrals            ... done (  0.0 sec) Dimension = 48
   => SHARK Basis and OBASIS are compatible. Storing Pre-screening
Shell pair information
Shell pair cut-off parameter TPreSel        ...   1.0e-14
Total number of shell pairs                 ...      1176
Shell pairs after pre-screening             ...      1173
Total number of primitive shell pairs       ...      3992
Primitive shell pairs kept                  ...      3388
          la=0 lb=0:    403 shell pairs
          la=1 lb=0:    448 shell pairs
          la=1 lb=1:    136 shell pairs
          la=2 lb=0:    112 shell pairs
          la=2 lb=1:     64 shell pairs
          la=2 lb=2:     10 shell pairs

Checking whether 4 symmetric matrices of dimension 96 fit in memory
[...]
 24+  24:  2905.92   0.000039    0.19  0.000004  (-0.000004 -0.001554 -0.001312)
 24+  25:  2912.96   0.000020    0.10  0.000002  (-0.001032  0.001042  0.000098)
 24+  26:  2924.06   0.000019    0.10  0.000002  (-0.000046 -0.000974  0.001032)
 24+  27:  2935.36   0.000055    0.28  0.000006  (-0.000971  0.001990  0.000957)
 24+  28:  4397.26   0.000000    0.00  0.000000  (-0.000010 -0.000003  0.000047)
 24+  29:  4469.02   0.000130    0.66  0.000009  (-0.002002 -0.001019  0.002007)
 24+  30:  4484.70   0.000142    0.72  0.000010  (-0.000028  0.000986 -0.002990)
 24+  31:  4546.02   0.000029    0.15  0.000002  (-0.001020  0.000987 -0.000010)
 24+  32:  4563.58   0.000072    0.36  0.000005  (-0.001986  0.000994 -0.000017)
 24+  33:  4570.37   0.000138    0.70  0.000009  ( 0.000134  0.003053 -0.000271)
 24+  34:  4578.30   0.000088    0.44  0.000006  (-0.002224  0.000145 -0.001016)
 24+  35:  5263.75   0.000051    0.26  0.000003  (-0.000980  0.001016  0.001008)
 25+  25:  2920.00   0.000048    0.24  0.000005  ( 0.000257 -0.001548 -0.001628)
 25+  26:  2931.10   0.000019    0.10  0.000002  (-0.001029 -0.000966 -0.000121)
 25+  27:  2942.40   0.000046    0.23  0.000005  (-0.000997  0.001983 -0.000033)
 25+  28:  4404.30   0.000070    0.36  0.000005  (-0.000986  0.002003 -0.000056)
 25+  29:  4476.06   0.000157    0.79  0.000011  (-0.002996  0.001013  0.000980)
 25+  30:  4491.74   0.000086    0.43  0.000006  ( 0.001023 -0.000999  0.001977)
 25+  31:  4553.06   0.000029    0.15  0.000002  (-0.001013  0.000985 -0.000020)
 25+  32:  4570.62   0.000147    0.74  0.000010  (-0.001016  0.003005  0.000011)
 25+  33:  4577.41   0.000165    0.84  0.000011  (-0.003026  0.000995  0.001057)
 25+  34:  4585.34   0.000115    0.58  0.000008  ( 0.000078  0.001948  0.002000)
 25+  35:  5270.79   0.000084    0.43  0.000005  (-0.001016  0.001988 -0.000005)
 26+  26:  2942.21   0.000026    0.13  0.000003  ( 0.000064 -0.000121 -0.001651)
 26+  27:  2953.51   0.000050    0.25  0.000005  (-0.001048  0.002048 -0.000040)
 26+  28:  4415.41   0.000033    0.17  0.000002  (-0.000049  0.001001  0.001158)
 26+  29:  4487.17   0.000043    0.22  0.000003  (-0.000981 -0.001042 -0.000966)
 26+  30:  4502.85   0.000015    0.08  0.000001  ( 0.000029  0.001018  0.000035)
 26+  31:  4564.17   0.000031    0.16  0.000002  ( 0.000239 -0.000812  0.001175)
 26+  32:  4581.73   0.000016    0.08  0.000001  ( 0.000065 -0.001032 -0.000054)
 26+  33:  4588.51   0.000023    0.12  0.000002  (-0.000915  0.000020  0.000854)
 26+  34:  4596.44   0.000079    0.40  0.000005  (-0.002070  0.001046 -0.000006)
 26+  35:  5281.90   0.000016    0.08  0.000001  (-0.000059  0.000964 -0.000035)
 27+  27:  2964.81   0.000084    0.43  0.000009  ( 0.001930 -0.001681 -0.001527)
 27+  28:  4426.70   0.000070    0.36  0.000005  ( 0.000979  0.002000  0.000068)
 27+  29:  4498.47   0.000071    0.36  0.000005  (-0.001985 -0.000040  0.000987)
 27+  30:  4514.15   0.000128    0.65  0.000009  (-0.001961  0.002011  0.000987)
 27+  31:  4575.47   0.000029    0.15  0.000002  (-0.000908  0.000065  0.001065)
 27+  32:  4593.03   0.000088    0.44  0.000006  (-0.000986  0.001994 -0.001013)
 27+  33:  4599.81   0.000082    0.41  0.000006  (-0.002066 -0.000018  0.001127)
 27+  34:  4607.74   0.000086    0.43  0.000006  (-0.001939 -0.001042 -0.000977)
 27+  35:  5293.20   0.000084    0.43  0.000005  (-0.001018  0.001986 -0.000007)
 28+  28:  5888.60   0.000224    1.13  0.000012  ( 0.000255 -0.001998 -0.002798)
 28+  29:  5960.36   0.000022    0.11  0.000001  ( 0.000036  0.001061 -0.000170)
 28+  30:  5976.04   0.000019    0.10  0.000001  ( 0.000016  0.001006 -0.000053)
 28+  31:  6037.36   0.000037    0.19  0.000002  (-0.000886  0.001061 -0.000119)
 28+  32:  6054.92   0.000020    0.10  0.000001  ( 0.000040  0.001001 -0.000133)
 28+  33:  6061.71   0.000067    0.34  0.000003  ( 0.000131  0.001031  0.001538)
 28+  34:  6069.64   0.000000    0.00  0.000000  (-0.000079  0.000051 -0.000007)
 28+  35:  6755.09   0.000087    0.44  0.000004  ( 0.000000  0.002001  0.000006)
 29+  29:  6032.13   0.000114    0.57  0.000006  ( 0.001594 -0.001822 -0.000148)
 29+  30:  6047.81   0.000020    0.10  0.000001  (-0.000941  0.000382  0.000058)
 29+  31:  6109.13   0.000140    0.71  0.000007  (-0.002509  0.000308 -0.000873)
 29+  32:  6126.68   0.000080    0.40  0.000004  (-0.000420  0.001175 -0.001580)
 29+  33:  6133.47   0.000084    0.42  0.000004  (-0.002063 -0.000015  0.000124)
 29+  34:  6141.40   0.000065    0.33  0.000003  (-0.001815 -0.000112  0.000015)
 29+  35:  6826.86   0.000109    0.55  0.000005  (-0.001993  0.001009  0.000003)
 30+  30:  6063.48   0.000050    0.25  0.000003  ( 0.001058 -0.000979 -0.000699)
 30+  31:  6124.80   0.000039    0.20  0.000002  (-0.000782  0.001164  0.000167)
 30+  32:  6142.36   0.000076    0.39  0.000004  (-0.001207  0.001046  0.001155)
 30+  33:  6149.15   0.000089    0.45  0.000005  (-0.000860  0.001734  0.000883)
 30+  34:  6157.08   0.000018    0.09  0.000001  (-0.000392 -0.000134  0.000867)
 30+  35:  6842.54   0.000044    0.22  0.000002  ( 0.000002  0.001001  0.001001)
 31+  31:  6186.12   0.000295    1.49  0.000015  ( 0.001833 -0.003372  0.000387)
 31+  32:  6203.68   0.000149    0.75  0.000007  (-0.002435  0.000980  0.000776)
 31+  33:  6210.47   0.000146    0.74  0.000007  (-0.001731  0.001137  0.001745)
 31+  34:  6218.40   0.000114    0.57  0.000006  (-0.001942  0.000984 -0.000984)
 31+  35:  6903.86   0.000133    0.67  0.000006  (-0.000995  0.002004 -0.000997)
 32+  32:  6221.24   0.000142    0.72  0.000007  ( 0.002282 -0.001306  0.000455)
 32+  33:  6228.03   0.000115    0.58  0.000006  (-0.002071 -0.000083  0.001215)
 32+  34:  6235.96   0.000076    0.39  0.000004  (-0.001605 -0.000267  0.001086)
 32+  35:  6921.42   0.000133    0.67  0.000006  (-0.001998  0.001002  0.001001)
 33+  33:  6234.82   0.000240    1.21  0.000012  ( 0.003142 -0.000665 -0.001306)
 33+  34:  6242.75   0.000042    0.21  0.000002  (-0.001033 -0.000351  0.000957)
 33+  35:  6928.20   0.000133    0.67  0.000006  (-0.001999  0.001001  0.001001)
 34+  34:  6250.68   0.000182    0.92  0.000009  ( 0.002778  0.000233 -0.001151)
 34+  35:  6936.13   0.000111    0.56  0.000005  (-0.001998  0.001001  0.000001)
 35+  35:  7621.59   0.001061    5.36  0.000043  (-0.000904 -0.006166 -0.002146)

* The epsilon (eps) is given for a Dirac delta lineshape.
** The dipole moment derivative (T) already includes vibrational overlap.

The first frequency considered to be a vibration is 6
The total number of vibrations considered is 30


--------------------------
THERMOCHEMISTRY AT 298.15K
--------------------------

Temperature         ...   298.15 K
Pressure            ...     1.00 atm
Total Mass          ...    60.10 AMU
Quasi RRHO          ...     True
Cut-Off Frequency   ...     1.00 cm^-1

Throughout the following assumptions are being made:
  (1) The electronic state is orbitally nondegenerate
  (2) There are no thermally accessible electronically excited states
  (3) Hindered rotations indicated by low frequency modes are not
      treated as such but are treated as vibrations and this may
      cause some error
  (4) All equations used are the standard statistical mechanics
      equations for an ideal gas
  (5) All vibrations are strictly harmonic

freq.     227.73  E(vib)   ...       0.33 
freq.     271.75  E(vib)   ...       0.29 
freq.     309.47  E(vib)   ...       0.26 
freq.     362.14  E(vib)   ...       0.22 
freq.     416.76  E(vib)   ...       0.18 
freq.     486.52  E(vib)   ...       0.15 
freq.     829.29  E(vib)   ...       0.04 
freq.     923.57  E(vib)   ...       0.03 
freq.     943.27  E(vib)   ...       0.03 
freq.     976.25  E(vib)   ...       0.03 
freq.    1085.49  E(vib)   ...       0.02 
freq.    1162.20  E(vib)   ...       0.01 
freq.    1184.45  E(vib)   ...       0.01 
freq.    1270.56  E(vib)   ...       0.01 
freq.    1363.45  E(vib)   ...       0.01 
freq.    1379.49  E(vib)   ...       0.01 
freq.    1396.49  E(vib)   ...       0.00 
freq.    1420.18  E(vib)   ...       0.00 
freq.    1452.96  E(vib)   ...       0.00 
freq.    1460.00  E(vib)   ...       0.00 
freq.    1471.11  E(vib)   ...       0.00 
freq.    1482.41  E(vib)   ...       0.00 
freq.    2944.30  E(vib)   ...       0.00 
freq.    3016.06  E(vib)   ...       0.00 
freq.    3031.74  E(vib)   ...       0.00 
freq.    3093.06  E(vib)   ...       0.00 
freq.    3110.62  E(vib)   ...       0.00 
freq.    3117.41  E(vib)   ...       0.00 
freq.    3125.34  E(vib)   ...       0.00 
freq.    3810.80  E(vib)   ...       0.00 

------------
INNER ENERGY
------------

The inner energy is: U= E(el) + E(ZPE) + E(vib) + E(rot) + E(trans)
    E(el)   - is the total energy from the electronic structure calculation
              = E(kin-el) + E(nuc-el) + E(el-el) + E(nuc-nuc)
    E(ZPE)  - the the zero temperature vibrational energy from the frequency calculation
    E(vib)  - the the finite temperature correction to E(ZPE) due to population
              of excited vibrational states
    E(rot)  - is the rotational thermal energy
    E(trans)- is the translational thermal energy

Summary of contributions to the inner energy U:
Electronic energy                ...   -194.09022086 Eh
Zero point energy                ...      0.10735832 Eh      67.37 kcal/mol
Thermal vibrational correction   ...      0.00259556 Eh       1.63 kcal/mol
Thermal rotational correction    ...      0.00141627 Eh       0.89 kcal/mol
Thermal translational correction ...      0.00141627 Eh       0.89 kcal/mol
-----------------------------------------------------------------------
Total thermal energy                   -193.97743444 Eh


Summary of corrections to the electronic energy:
(perhaps to be used in another calculation)
Total thermal correction                  0.00542810 Eh       3.41 kcal/mol
Non-thermal (ZPE) correction              0.10735832 Eh      67.37 kcal/mol
-----------------------------------------------------------------------
Total correction                          0.11278643 Eh      70.77 kcal/mol


--------
ENTHALPY
--------

The enthalpy is H = U + kB*T
                kB is Boltzmann's constant
Total thermal energy              ...   -193.97743444 Eh 
Thermal Enthalpy correction       ...      0.00094421 Eh       0.59 kcal/mol
-----------------------------------------------------------------------
Total Enthalpy                    ...   -193.97649023 Eh


Note: Only C1 symmetry has been detected, increase convergence thresholds 
      if your molecule has a higher symmetry. Symmetry factor of 1.0 is   
      used for the rotational entropy correction. 
 

Note: Rotational entropy computed according to Herzberg 
Infrared and Raman Spectra, Chapter V,1, Van Nostrand Reinhold, 1945 
Point Group:  C1, Symmetry Number:   1  
Rotational constants in cm-1:     0.289305     0.266157     0.158369 

Vibrational entropy computed according to the QRRHO of S. Grimme
Chem.Eur.J. 2012 18 9955 using a reference frequency of 100.0 cm-1


-------
ENTROPY
-------

The entropy contributions are T*S = T*(S(el)+S(vib)+S(rot)+S(trans))
     S(el)   - electronic entropy
     S(vib)  - vibrational entropy
     S(rot)  - rotational entropy
     S(trans)- translational entropy
The entropies will be listed as multiplied by the temperature to get
units of energy

Electronic entropy                ...      0.00000000 Eh      0.00 kcal/mol
Vibrational entropy               ...      0.00400396 Eh      2.51 kcal/mol
Rotational entropy                ...      0.01159121 Eh      7.27 kcal/mol
Translational entropy             ...      0.01815004 Eh     11.39 kcal/mol
-----------------------------------------------------------------------
Final entropy term                ...      0.03374521 Eh     21.18 kcal/mol

In case the symmetry of your molecule has not been determined correctly
or in case you have a reason to use a different symmetry number we print 
out the resulting rotational entropy values for sn=1,12:

 non-linear molecules -----------------------------------
|  sn= 1 | S(rot)=       0.01159121 Eh      7.27 kcal/mol|
|  sn= 2 | S(rot)=       0.01093675 Eh      6.86 kcal/mol|
|  sn= 3 | S(rot)=       0.01055392 Eh      6.62 kcal/mol|
|  sn= 4 | S(rot)=       0.01028229 Eh      6.45 kcal/mol|
|  sn= 5 | S(rot)=       0.01007160 Eh      6.32 kcal/mol|
|  sn= 6 | S(rot)=       0.00989946 Eh      6.21 kcal/mol|
|  sn= 7 | S(rot)=       0.00975391 Eh      6.12 kcal/mol|
|  sn= 8 | S(rot)=       0.00962784 Eh      6.04 kcal/mol|
|  sn= 9 | S(rot)=       0.00951663 Eh      5.97 kcal/mol|
|  sn=10 | S(rot)=       0.00941715 Eh      5.91 kcal/mol|
|  sn=11 | S(rot)=       0.00932716 Eh      5.85 kcal/mol|
|  sn=12 | S(rot)=       0.00924500 Eh      5.80 kcal/mol|
 linear molecules ---------------------------------------
|  Dinfh | S(rot)=       0.00706577 Eh      4.43 kcal/mol|
|  Cinfv | S(rot)=       0.00772023 Eh      4.84 kcal/mol|
 --------------------------------------------------------


-------------------
GIBBS FREE ENERGY
-------------------

The Gibbs free energy is G = H - T*S

Total enthalpy                    ...   -193.97649023 Eh 
Total entropy correction          ...     -0.03374521 Eh    -21.18 kcal/mol
-----------------------------------------------------------------------
Final Gibbs free energy         ...   -194.01023543 Eh

For completeness - the Gibbs free energy minus the electronic energy
G-E(el)                           ...      0.07998543 Eh     50.19 kcal/mol

[1770544282.035583] [node213:2949967:0]     ucp_context.c:1234 UCX  WARN  transport 'ib' is not available, please use one or more of: mm, posix, self, shm, sm, sysv, tcp
[1770544282.096785] [node213:2949973:0]     ucp_context.c:1234 UCX  WARN  transport 'ib' is not available, please use one or more of: mm, posix, self, shm, sm, sysv, tcp
[1770544282.165307] [node213:2949977:0]     ucp_context.c:1234 UCX  WARN  transport 'ib' is not available, please use one or more of: mm, posix, self, shm, sm, sysv, tcp
[1770544282.234069] [node213:2949982:0]     ucp_context.c:1234 UCX  WARN  transport 'ib' is not available, please use one or more of: mm, posix, self, shm, sm, sysv, tcp

--------------------------------
SUGGESTED CITATIONS FOR THIS RUN
--------------------------------

Below you find a list of papers that are relevant to this ORCA run
We neither can nor want to force you to cite these papers, but we appreciate if you do
You receive ORCA, which is the product of decades of hard work by many enthusiastic individuals, for free
The only thing we kindly ask in return is that you cite our papers,
We deeply appreciate it, if you show your appreciation for ORCA by not just citing the generic ORCA reference.

Please note that relegating all ORCA citations to the supporting information does *not* help us.
SI sections are not indexed - citations you put there will not count into any citation statistics
But we need these citations in order to attract the funding resources that allow us to do what we are doing

Therefore, if you are a happy ORCA user, please consider citing a few of the papers listed below in the main body of your paper

In addition to the list printed below, the program has created the file IPA_G.bibtex that contains the list in bibtex format
You can import this file easily into all common literature databanks and citation aid programs


List of essential papers. We consider these as the minimum necessary citations

  1. Neese, F.
     Software update: the ORCA program system, version 6.0
     WIRES Comput. Molec. Sci. 2025 15(1), e70019
     doi.org/10.1002/wcms.7019

List of papers to cite with high priority. The work reported in these papers was absolutely
necessary for this run to complete.
Our perspective: the developers of density functionals and basis sets usually get cited in chemistry papers
Good! But without the algorithms to do something with them, the functionals or basis sets would not do anything.
Hence, in our opinion, the algorithm design and method developments papers are equally worthy of getting cited

  1. Neese, F.
     An improvement of the resolution of the identity approximation for the formation of the Coulomb matrix
     J. Comp. Chem. 2003 24(14), 1740-1747
     doi.org/10.1002/jcc.10318
  2. Neese, F.; Wennmohs, F.; Hansen, A.; Becker, U.
     Efficient, approximate and parallel Hartree-Fock and hybrid DFT calculations. A 'chain-of-spheres' algorithm for the Hartree-Fock exchange
     Chem. Phys. 2009 356(1-3), 98-109
     doi.org/10.1016/j.chemphys.2008.10.036
  3. Bykov, D.; Petrenko, T.; Izsak, R.; Kossmann, S.; Becker, U.; Valeev, E.; Neese, F.
     Efficient implementation of the analytic second derivatives of Hartree-Fock and hybrid DFT energies: a detailed analysis of different approximations
     Molec. Phys. 2015 113 , 1961-1977
     doi.org/10.1080/00268976.2015.1025114
  4. Bannwarth, C.; Caldeweyher, E.; Ehlert, S.; Hansen, A.; Pracht, P.; Seibert, J.; Spicher, S.; Grimme, S.
     Extended tight-binding quantum chemistry methods
     WIRES Comput. Molec. Sci. 2020 11(2), e1493
     doi.org/10.1002/wcms.1493
  5. Helmich-Paris, B.; de Souza, B.; Neese, F.; Izsák, R.
     An improved chain of spheres for exchange algorithm
     J. Chem. Phys. 2021 155(10), 104109
     doi.org/10.1063/5.0058766
  6. Neese, F.
     The SHARK Integral Generation and Digestion System
     J. Comp. Chem. 2022 44(3), 381
     doi.org/10.1002/jcc.26942

List of suggested additional citations. These are papers that are important in the 'surrounding' of 
of this run, or papers that preceded the highly important papers. If you like your results we are grateful for a citation.

  1. Izsak, R.; Neese, F.
     An overlap fitted chain of spheres exchange method
     J. Chem. Phys. 2011 135 , 144105
     doi.org/10.1063/1.3646921
  2. Izsak, R.; Hansen, A.; Neese, F.
     The resolution of identity and chain of spheres approximations for the LPNO-CCSD singles Fock term
     Molec. Phys. 2012 110 , 2413-2417
     doi.org/10.1080/00268976.2012.687466
  3. Neese, F.
     The ORCA program system
     WIRES Comput. Molec. Sci. 2012 2(1), 73-78
     doi.org/10.1002/wcms.81
  4. Izsak, R.; Neese, F.; Klopper, W.
     Robust fitting techniques in the chain of spheres approximation to the Fock exchange: The role of the complementary space
     J. Chem. Phys. 2013 139 , 
     doi.org/10.1063/1.4819264
  5. Neese, F.
     Software update: the ORCA program system, version 4.0
     WIRES Comput. Molec. Sci. 2018 8(1), 1-6
     doi.org/10.1002/wcms.1327
  6. Neese, F.; Wennmohs, F.; Becker, U.; Riplinger, C.
     The ORCA quantum chemistry program package
     J. Chem. Phys. 2020 152(22), 224108
     doi.org/10.1063/5.0004608
  7. Neese, F.
     Software update: The ORCA program system—Version 5.0
     WIRES Comput. Molec. Sci. 2022 12(1), e1606
     doi.org/10.1002/wcms.1606

List of optional additional citations

  1. Neese, F.
     Approximate second-order SCF convergence for spin unrestricted wavefunctions
     Chem. Phys. Lett. 2000 325(1-3), 93-98
     doi.org/10.1016/s0009-2614(00)00662-x

Timings for individual modules:

Sum of individual times          ...      221.369 sec (=   3.689 min)
Startup calculation              ...       23.765 sec (=   0.396 min)  10.7 %
SCF iterations                   ...       73.630 sec (=   1.227 min)  33.3 %
Property integrals               ...       27.693 sec (=   0.462 min)  12.5 %
SCF Response                     ...        6.479 sec (=   0.108 min)   2.9 %
Property calculations            ...       36.723 sec (=   0.612 min)  16.6 %
SCF Gradient evaluation          ...       52.967 sec (=   0.883 min)  23.9 %
Geometry relaxation              ...        0.085 sec (=   0.001 min)   0.0 %
XTB module                       ...        0.028 sec (=   0.000 min)   0.0 %
                             ****ORCA TERMINATED NORMALLY****
TOTAL RUN TIME: 0 days 0 hours 9 minutes 36 seconds 49 msec
