
                                 *****************
                                 * O   R   C   A *
                                 *****************

                                            #,                                       
                                            ###                                      
                                            ####                                     
                                            #####                                    
                                            ######                                   
                                           ########,                                 
                                     ,,################,,,,,                         
                               ,,#################################,,                 
                          ,,##########################################,,             
                       ,#########################################, ''#####,          
                    ,#############################################,,   '####,        
                  ,##################################################,,,,####,       
                ,###########''''           ''''###############################       
              ,#####''   ,,,,##########,,,,          '''####'''          '####       
            ,##' ,,,,###########################,,,                        '##       
           ' ,,###''''                  '''############,,,                           
         ,,##''                                '''############,,,,        ,,,,,,###''
      ,#''                                            '''#######################'''  
     '                                                          ''''####''''         
             ,#######,   #######,   ,#######,      ##                                
            ,#'     '#,  ##    ##  ,#'     '#,    #''#        ,####,    ,#,          
            ##       ##  ##   ,#'  ##            #'  '#       #'       ,# #          
            ##       ##  #######   ##           ,######,      #####,      #          
            '#,     ,#'  ##    ##  '#,     ,#' ,#      #,     #,   #      #          
             '#######'   ##     ##  '#######'  #'      '#     '####' #    #          



                #########################################################
                #                        -***-                          #
                #          Department of theory and spectroscopy        #
                #                                                       #
                #                      Frank Neese                      #
                #                                                       #
                #     Directorship, Architecture, Infrastructure        #
                #                    SHARK, DRIVERS                     #
                #        Core code/Algorithms in most modules           #
                #                                                       #
                #        Max Planck Institute fuer Kohlenforschung      #
                #                Kaiser Wilhelm Platz 1                 #
                #                 D-45470 Muelheim/Ruhr                 #
                #                      Germany                          #
                #                                                       #
                #                  All rights reserved                  #
                #                        -***-                          #
                #########################################################


                         Program Version 6.1.0  -  RELEASE   -
                                (GIT: $679e74b$)
                          ($2025-06-10 18:02:51 +0200$)


 With contributions from (in alphabetic order):
[Max-Planck-Institut fuer Kohlenforschung]                               
  Daniel Aravena         : Magnetic Suceptibility                        
  Michael Atanasov       : Ab Initio Ligand Field Theory (pilot matlab implementation)
  Alexander A. Auer      : GIAO ZORA, VPT2 properties, NMR spectrum      
  Ute Becker             : All parallelization in ORCA, NUMFREQ, NUMCALC 
  Giovanni Bistoni       : ED, misc. LED, open-shell LED, HFLD           
  Dmytro Bykov           : pre 5.0 version of the SCF Hessian            
  Marcos Casanova-Páez   : Triplet and SCS-CIS(D). UHF-(DLPNO)-IP/EA/STEOM-CCSD. UHF-CVS-IP/STEOM-CCSD   
  Vijay G. Chilkuri      : MRCI spin determinant printing, contributions to CSF-ICE 
  Pauline Colinet        : FMM embedding                                 
  Dipayan Datta          : RHF DLPNO-CCSD density                        
  Achintya Kumar Dutta   : EOM-CC, STEOM-CC                              
  Nicolas Foglia         : Exact transition moments, OPA infrastructure, MCD improvements    
  Dmitry Ganyushin       : Spin-Orbit,Spin-Spin,Magnetic field MRCI      
  Miquel Garcia-Rates    : C-PCM and meta-GGA Hessian, CCSD/C-PCM, Gaussian charge scheme 
  Tiago L. C. Gouveia    : GS-ROHF, GS-ROCIS                             
  Yang Guo               : DLPNO-NEVPT2, F12-NEVPT2, CIM, IAO-localization        
  Andreas Hansen         : Spin unrestricted coupled pair/coupled cluster methods 
  Ingolf Harden          : AUTO-CI MPn and infrastructure                
  Benjamin Helmich-Paris : MC-RPA, TRAH-(SCF,CASSCF), AVAS, COSX integrals, SCF dyn. polar., MC-PDFT, srDFT 
  Lee Huntington         : MR-EOM, pCC                                   
  Robert Izsak           : Overlap fitted RIJCOSX, COSX-SCS-MP3, EOM     
  Riya Kayal             : Wick's Theorem for AUTO-CI, AUTO-CI UHF-CCSDT 
  Emily Kempfer          : AUTO-CI RHF CISDT and CCSDT, approximate NEVPT4
  Christian Kollmar      : KDIIS, OOCD, Brueckner-CCSD(T), CCSD density, CASPT2, CASPT2-K, improved NEVPT2 
  Axel Koslowski         : Symmetry handling                             
  Simone Kossmann        : meta-GGA functionals, TD-DFT gradient, OOMP2, (MP2 Hessian; deprecated post 5.0) 
  Lucas Lang             : DCDCAS, Hyperfine gauge corrections, ICE-SOC+SSC
  Marvin Lechner         : AUTO-CI (C++ implementation), FIC-MRCC        
  Spencer Leger          : CASSCF response                               
  Dagmar Lenk            : GEPOL surface, SMD, ORCA-2-JSON               
  Dimitrios Liakos       : Extrapolation schemes; Compound Job, Property file
  Dimitrios Manganas     : Further ROCIS development; embedding schemes. LFT, Crystal Embedding 
  Dimitrios Pantazis     : SARC Basis sets                               
  Anastasios Papadopoulos: AUTO-CI, single reference methods and gradients 
  Taras Petrenko         : pre 6.0 DFT Hessian and TD-DFT gradient,  ECA, NRVS 
  Petra Pikulova         : Analytic Raman intensities                    
  Peter Pinski           : DLPNO-MP2, DLPNO-MP2 Gradient                 
  Shashank Vittal Rao    : ES-AILFT, MagRelax                            
  Christoph Reimann      : Effective Core Potentials                     
  Marius Retegan         : Local ZFS, SOC                                
  Christoph Riplinger    : Optimizer, TS searches, QM/MM, DLPNO-CCSD(T), (RO)-DLPNO pert. Triples 
  Michael Roemelt        : Original ROCIS implementation, recursive CI coupling coefficients
  Masaaki Saitow         : Open-shell DLPNO-CCSD energy and density      
  Barbara Sandhoefer     : DKH picture change effects                    
  Yorick L. A. Schmerwitz: GMF and freeze-and-release deltaSCF, NEB S-IDPP initial path                    
  Kantharuban Sivalingam : CASSCF convergence/infrastructure, NEVPT2, NEVPT3, NEVPT4(SD), FIC-MRCI and CEPA variants
  Bernardo de Souza      : ESD, SOC TD-DFT                               
  Georgi L. Stoychev     : AutoAux, RI-MP2 NMR, DLPNO-MP2 response, X2C  
  Van Anh Tran           : RI-MP2 g-tensors                              
  Willem Van den Heuvel  : Paramagnetic NMR                              
  Zikuan Wang            : NOTCH, Electric field optimization            
  Frank Wennmohs         : Technical directorship and infrastructure     
  Hang Xu                : AUTO-CI-Response properties                   
                                                                         
[FACCTs GmbH]                                                            
  Markus Bursch, Nicolas Foglia, Miquel Garcia-Rates, Ingolf Harden, Hagen Neugebauer, Anastasios Papadopoulos, 
  Christoph Riplinger, Bernardo de Souza, Georgi L. Stoychev                                                    
                                                                 
  APM, various basis sets, CI-OPT, improved COSX, DLPNO-Multilevel,           
  DOCKER, DRACO, updates on ESD, Fragmentator, GOAT, IRC, LR-CPCM, L-BFGS, MBIS, meta-GGA TD-DFT gradient, ML-optimized integration grids, 
  MM, NACMEs, nearIR, NEB, NEB-TS, NL-DFT gradient (VV10), 2- and 3-layer-ONIOM, interface openCOSMO-RS, QMMM,   
  Crystal-QMMM, RESP, rigid body optimization, SF, symmetry and pop. for TD-DFT, various functionals, SOLVATOR                                   
                                                                         
[Other institutions]                                                     
  V. Asgeirsson          : NEB                                           
  Christoph Bannwarth    : sTDA-DFT, sTD-DFT, PBEh-3c, B97-3c, D3        
  Giovanni Bistoni       : ETS/NOCV, ADLD/ADEX, COVALED                  
  Martin Brehm           : Molecular dynamics                            
  Ronald Cardenas        : ETS/NOCV                                      
  Martina Colucci        : COVALED                                       
  Sebastian Ehlert       : rSCAN, r2SCAN, r2SCAN-3c, D4, dhf basis sets  
  Marvin Friede          : D4 for Fr, Ra, Ac-Lr                          
  Lars Goerigk           : TD-DFT with DH, B97 family of functionals     
  Stefan Grimme          : VdW corrections, initial TS optimization, DFT functionals, gCP, sTDA/sTD-DF 
  Waldemar Hujo          : DFT-NL                                        
  H. Jonsson             : NEB                                           
  Holger Kruse           : gCP                                           
  Marcel Mueller         : wB97X-3c, vDZP basis set                      
  Hagen Neugebauer       : wr2SCAN, Native XTB                           
  Gianluca Regni         : ADLD/ADEX                                     
  Tobias Risthaus        : pre 6.0 range-separated hybrid DFT and stability analysis
  Lukas Wittmann         : regularized MP2, r2SCAN double-hybrids, wr2SCAN        
                                                                         
We gratefully acknowledge several colleagues who have allowed us to      
interface, adapt or use parts of their codes:                            
  Ed Valeev, F. Pavosevic, A. Kumar             : LibInt (2-el integral package), F12 methods 
  Garnet Chan, S. Sharma, J. Yang, R. Olivares  : DMRG                   
  Ulf Ekstrom                                   : XCFun DFT Library      
  Mihaly Kallay                                 : mrcc  (arbitrary order and MRCC methods)
  Frank Weinhold                                : gennbo (NPA and NBO analysis)           
  Simon Mueller                                 : openCOSMO-RS                            
  Christopher J. Cramer and Donald G. Truhlar   : smd solvation model                     
  S Lehtola, MJT Oliveira, MAL Marques          : LibXC Library                           
  Liviu Ungur et al                             : ANISO software                          


 Your calculation uses the libint2 library for the computation of 2-el integrals
 For citations please refer to: http://libint.valeyev.net

 Your ORCA version has been built with support for libXC version: 7.0.0
 For citations please refer to: https://libxc.gitlab.io

 This ORCA versions uses:
   CBLAS   interface :  Fast vector & matrix operations
   LAPACKE interface :  Fast linear algebra routines
   SCALAPACK package :  Parallel linear algebra routines
   Shared memory     :  Shared parallel matrices
   BLAS/LAPACK       :  OpenBLAS 0.3.29  USE64BITINT DYNAMIC_ARCH NO_AFFINITY Zen SINGLE_THREADED
        Core in use  :  Zen
   Copyright (c) 2011-2014, The OpenBLAS Project


  ***********************************
  * Starting time: Sun Feb  8 09:11:42 2026
  * Host name:     node068.cluster
  * Process ID:    2120522
  * Working dir.:  /scratch/56927682
  ***********************************

NOTE: MaxCore=1500 MB was set to SCF,MP2,MDCI,CIPSI,MRCI,RASCI and CIS
      => If you want to overwrite this, your respective input block should be placed after the MaxCore statement
Warning: RI is on but no J-basis has been assigned. Assigning Def2/J (nothing to worry about!)
================================================================================

----- Orbital basis set information -----
Your calculation utilizes the basis: def2-SVP
   F. Weigend and R. Ahlrichs, Phys. Chem. Chem. Phys. 7, 3297 (2005).

----- AuxJ basis set information -----
Your calculation utilizes the auxiliary basis: def2/J
   H-Rn: F. Weigend, Phys. Chem. Chem. Phys. 8, 1057 (2006).
   Fr-Lr: K. Eichkorn, F. Weigend, O. Treutler, R. Ahlrichs; Theor. Chem. Acc. 97, 119 (1997).

================================================================================
                                        WARNINGS
                       Please study these warnings very carefully!
================================================================================


WARNING: Geometry Optimization
  ===> : Switching off AutoStart
         For restart on a previous wavefunction, please use MOREAD

================================================================================
                                       INPUT FILE
================================================================================
NAME = MeOH_dimer.inp
|  1> ! b3lyp opt freq
|  2> 
|  3> 
|  4>  %pal 
|  5>  nprocs 4 
|  6>  end 
|  7>  
|  8>  %maxcore 1500 
|  9>  
| 10>  * XYZ 0 1
| 11> O     -4.5054166789    1.8454383930   -1.0641366927
| 12> C     -4.4672795126    2.4493540935    0.2153057947
| 13> H     -3.9929142668    1.0107144988   -0.9871402614
| 14> H     -5.0146636785    3.3941670592    0.1788412525
| 15> H     -4.9365521848    1.7869701644    0.9463162439
| 16> H     -3.4294481915    2.6435468566    0.4971553781
| 17> O     -3.0114276456   -0.4242920413   -0.8637237867
| 18> C     -3.6037415131   -1.7127868850   -0.8056845959
| 19> H     -2.1590764710   -0.5345042030   -1.3243952879
| 20> H     -4.5576323710   -1.6401899911   -0.2772770026
| 21> H     -3.7779408019   -2.0790069778   -1.8201739080
| 22> H     -2.9415978318   -2.3948204159   -0.2675744919
| 23> *
| 24> 
| 25>                          ****END OF INPUT****
================================================================================

                       *****************************
                       * Geometry Optimization Run *
                       *****************************

Geometry optimization settings:
Update method            Update   .... BFGS
Choice of coordinates    CoordSys .... (2022) Redundant Internals
Initial Hessian          InHess   .... Almloef's Model
Max. no of cycles        MaxIter  .... 50

Convergence Tolerances:
Energy Change            TolE     ....  5.0000e-06 Eh
Max. Gradient            TolMAXG  ....  3.0000e-04 Eh/bohr
RMS Gradient             TolRMSG  ....  1.0000e-04 Eh/bohr
Max. Displacement        TolMAXD  ....  4.0000e-03 bohr
RMS Displacement         TolRMSD  ....  2.0000e-03 bohr
Strict Convergence                .... False

------------------------------------------------------------------------------
                        ORCA OPTIMIZATION COORDINATE SETUP
------------------------------------------------------------------------------

The optimization will be done in redundant internal coordinates (2022)
Making redundant internal coordinates   ...  (2022 redundants) done
Evaluating the initial hessian          ...  (Almloef) done
Evaluating the coordinates              ...  done
Calculating the B-matrix                .... done
Calculating the G-matrix                .... done
The number of degrees of freedom        ....   40

    -----------------------------------------------------------------
                    Redundant Internal Coordinates


    -----------------------------------------------------------------
         Definition                    Initial Value    Approx d2E/dq
    -----------------------------------------------------------------
      1. B(C   1,O   0)                  1.4153         0.509886   
      2. B(H   2,O   0)                  0.9825         0.478666   
      3. B(H   3,C   1)                  1.0925         0.356763   
      4. B(H   4,C   1)                  1.0924         0.356934   
      5. B(H   5,C   1)                  1.0928         0.356396   
      6. B(O   6,H   2)                  1.7429         0.029299   
      7. B(C   7,O   6)                  1.4193         0.502485   
      8. B(H   8,O   6)                  0.9751         0.491855   
      9. B(H   9,C   7)                  1.0929         0.356307   
     10. B(H  10,C   7)                  1.0925         0.356751   
     11. B(H  11,C   7)                  1.0923         0.357042   
     12. A(C   1,O   0,H   2)          106.1178         0.352956   
     13. A(O   0,C   1,H   4)          109.5497         0.338906   
     14. A(H   3,C   1,H   5)          109.3143         0.289944   
     15. A(H   3,C   1,H   4)          109.3584         0.290012   
     16. A(O   0,C   1,H   3)          108.9857         0.338879   
     17. A(H   4,C   1,H   5)          110.0674         0.289966   
     18. A(O   0,C   1,H   5)          109.5461         0.338821   
     19. L(O   0,H   2,O   6,C   1, 1) 179.6231         0.208177   
     20. L(O   0,H   2,O   6,C   1, 2) 184.0011         0.208177   
     21. A(H   2,O   6,H   8)          123.4926         0.208913   
     22. A(H   2,O   6,C   7)          121.0201         0.228800   
     23. A(C   7,O   6,H   8)          106.3495         0.353708   
     24. A(H  10,C   7,H  11)          110.1691         0.290025   
     25. A(H   9,C   7,H  11)          109.4131         0.289968   
     26. A(O   6,C   7,H  11)          109.5125         0.338098   
     27. A(H   9,C   7,H  10)          109.3937         0.289931   
     28. A(O   6,C   7,H  10)          109.4434         0.338052   
     29. A(O   6,C   7,H   9)          108.8880         0.337982   
     30. D(H   5,C   1,O   0,H   2)     59.6463         0.020581   
     31. D(H   3,C   1,O   0,H   2)    179.2048         0.020581   
     32. D(H   4,C   1,O   0,H   2)    -61.1808         0.020581   
     33. D(H   8,O   6,O   0,C   1)   -112.0403         0.010000   
     34. D(C   7,O   6,O   0,C   1)    105.3798         0.010000   
     35. D(H   9,C   7,O   6,H   2)    -33.1607         0.021664   
     36. D(H   9,C   7,O   6,H   8)    178.9028         0.021664   
     37. D(H  11,C   7,O   6,H   8)     59.3029         0.021664   
     38. D(H  10,C   7,O   6,H   2)     86.3745         0.021664   
     39. D(H  11,C   7,O   6,H   2)   -152.7606         0.021664   
     40. D(H  10,C   7,O   6,H   8)    -61.5620         0.021664   
    -----------------------------------------------------------------

Number of atoms                         .... 12
Number of degrees of freedom            .... 40


         *************************************************************
         *                GEOMETRY OPTIMIZATION CYCLE   1            *
         *************************************************************
---------------------------------
CARTESIAN COORDINATES (ANGSTROEM)
---------------------------------
  O     -4.505417    1.845438   -1.064137
  C     -4.467280    2.449354    0.215306
  H     -3.992914    1.010714   -0.987140
  H     -5.014664    3.394167    0.178841
  H     -4.936552    1.786970    0.946316
  H     -3.429448    2.643547    0.497155
  O     -3.011428   -0.424292   -0.863724
  C     -3.603742   -1.712787   -0.805685
  H     -2.159076   -0.534504   -1.324395
  H     -4.557632   -1.640190   -0.277277
  H     -3.777941   -2.079007   -1.820174
  H     -2.941598   -2.394820   -0.267574

----------------------------
CARTESIAN COORDINATES (A.U.)
----------------------------
  NO LB      ZA    FRAG     MASS         X           Y           Z
   0 O     8.0000    0    15.999   -8.514004    3.487373   -2.010927
   1 C     6.0000    0    12.011   -8.441935    4.628608    0.406869
   2 H     1.0000    0     1.008   -7.545514    1.909974   -1.865425
   3 H     1.0000    0     1.008   -9.476341    6.414046    0.337961
   4 H     1.0000    0     1.008   -9.328732    3.376884    1.788279
   5 H     1.0000    0     1.008   -6.480718    4.995580    0.939488
   6 O     8.0000    0    15.999   -5.690774   -0.801796   -1.632201
   7 C     6.0000    0    12.011   -6.810085   -3.236698   -1.522523
   8 H     1.0000    0     1.008   -4.080063   -1.010067   -2.502744
   9 H     1.0000    0     1.008   -8.612677   -3.099510   -0.523978
  10 H     1.0000    0     1.008   -7.139273   -3.928754   -3.439630
  11 H     1.0000    0     1.008   -5.558814   -4.525555   -0.505643

--------------------------------
INTERNAL COORDINATES (ANGSTROEM)
--------------------------------
 O      0   0   0     0.000000000000     0.00000000     0.00000000
 C      1   0   0     1.415323883543     0.00000000     0.00000000
 H      1   2   0     0.982522850823   106.11777751     0.00000000
 H      2   1   3     1.092534039777   108.98568860   179.20482051
 H      2   1   3     1.092403582584   109.54972410   298.81921229
 H      2   1   3     1.092814653983   109.54605290    59.64632670
 O      3   1   2     1.742926098247   177.15304174   276.18604539
 C      7   3   1     1.419303782685   121.02005904   188.57991605
 H      7   3   1     0.975124339480   123.49258753   330.93157494
 H      8   7   3     1.092882730418   108.88795738   326.83931092
 H      8   7   3     1.092543414677   109.44337987    86.37450218
 H      8   7   3     1.092321599157   109.51248470   207.23942826

---------------------------
INTERNAL COORDINATES (A.U.)
---------------------------
 O      0   0   0     0.000000000000     0.00000000     0.00000000
 C      1   0   0     2.674574530695     0.00000000     0.00000000
 H      1   2   0     1.856699108375   106.11777751     0.00000000
 H      2   1   3     2.064590127165   108.98568860   179.20482051
 H      2   1   3     2.064343598799   109.54972410   298.81921229
 H      2   1   3     2.065120411163   109.54605290    59.64632670
 O      3   1   2     3.293652997351   177.15304174   276.18604539
 C      7   3   1     2.682095450113   121.02005904   188.57991605
 H      7   3   1     1.842717948138   123.49258753   330.93157494
 H      8   7   3     2.065249056982   108.88795738   326.83931092
 H      8   7   3     2.064607843159   109.44337987    86.37450218
 H      8   7   3     2.064188672573   109.51248470   207.23942826

---------------------
BASIS SET INFORMATION
---------------------
There are 3 groups of distinct atoms

 Group   1 Type O   : 7s4p1d contracted to 3s2p1d pattern {511/31/1}
 Group   2 Type C   : 7s4p1d contracted to 3s2p1d pattern {511/31/1}
 Group   3 Type H   : 4s1p contracted to 2s1p pattern {31/1}

Atom   0O    basis set group =>   1
Atom   1C    basis set group =>   2
Atom   2H    basis set group =>   3
Atom   3H    basis set group =>   3
Atom   4H    basis set group =>   3
Atom   5H    basis set group =>   3
Atom   6O    basis set group =>   1
Atom   7C    basis set group =>   2
Atom   8H    basis set group =>   3
Atom   9H    basis set group =>   3
Atom  10H    basis set group =>   3
Atom  11H    basis set group =>   3
---------------------------------
AUXILIARY/J BASIS SET INFORMATION
---------------------------------
There are 3 groups of distinct atoms

 Group   1 Type O   : 12s5p4d2f1g contracted to 6s4p3d1f1g pattern {711111/2111/211/2/1}
 Group   2 Type C   : 12s5p4d2f1g contracted to 6s4p3d1f1g pattern {711111/2111/211/2/1}
 Group   3 Type H   : 5s2p1d contracted to 3s1p1d pattern {311/2/1}

Atom   0O    basis set group =>   1
Atom   1C    basis set group =>   2
Atom   2H    basis set group =>   3
Atom   3H    basis set group =>   3
Atom   4H    basis set group =>   3
Atom   5H    basis set group =>   3
Atom   6O    basis set group =>   1
Atom   7C    basis set group =>   2
Atom   8H    basis set group =>   3
Atom   9H    basis set group =>   3
Atom  10H    basis set group =>   3
Atom  11H    basis set group =>   3
[1770538302.892903] [node068:2120527:0]     ucp_context.c:1234 UCX  WARN  transport 'ib' is not available, please use one or more of: mm, posix, self, shm, sm, sysv, tcp
[1770538302.903662] [node068:2120528:0]     ucp_context.c:1234 UCX  WARN  transport 'ib' is not available, please use one or more of: mm, posix, self, shm, sm, sysv, tcp
[1770538302.928371] [node068:2120530:0]     ucp_context.c:1234 UCX  WARN  transport 'ib' is not available, please use one or more of: mm, posix, self, shm, sm, sysv, tcp
[1770538302.955447] [node068:2120534:0]     ucp_context.c:1234 UCX  WARN  transport 'ib' is not available, please use one or more of: mm, posix, self, shm, sm, sysv, tcp


           ************************************************************
           *        Program running with 4 parallel MPI-processes     *
           *              working on a common directory               *
           ************************************************************
------------------------------------------------------------------------------
                             ORCA STARTUP CALCULATIONS
                           -- RI-GTO INTEGRALS CHOSEN --
------------------------------------------------------------------------------
------------------------------------------------------------------------------
                   ___                                                        
                  /   \      - P O W E R E D   B Y -                         
                 /     \                                                     
                 |  |  |   _    _      __       _____    __    __             
                 |  |  |  | |  | |    /  \     |  _  \  |  |  /  |          
                  \  \/   | |  | |   /    \    | | | |  |  | /  /          
                 / \  \   | |__| |  /  /\  \   | |_| |  |  |/  /          
                |  |  |   |  __  | /  /__\  \  |    /   |      \           
                |  |  |   | |  | | |   __   |  |    \   |  |\   \          
                \     /   | |  | | |  |  |  |  | |\  \  |  | \   \       
                 \___/    |_|  |_| |__|  |__|  |_| \__\ |__|  \__/        
                                                                              
                      - O R C A' S   B I G   F R I E N D -                    
                                      &                                       
                       - I N T E G R A L  F E E D E R -                       
                                                                              
 v1 FN, 2020, v2 2021, v3 2022-2024                                           
------------------------------------------------------------------------------


----------------------
SHARK INTEGRAL PACKAGE
----------------------

Number of atoms                             ...     12
Number of basis functions                   ...     96
Number of shells                            ...     48
Maximum angular momentum                    ...      2
Integral batch strategy                     ... SHARK/LIBINT Hybrid
RI-J (if used) integral strategy            ... SPLIT-RIJ (Revised 2003 algorithm where possible)
Printlevel                                  ...      1
Contraction scheme used                     ... SEGMENTED contraction
Prescreening option                         ... SCHWARTZ
   Thresh                                   ... 2.500e-11
   Tcut                                     ... 2.500e-12
   Tpresel                                  ... 2.500e-12 
Coulomb Range Separation                    ... NOT USED
Exchange Range Separation                   ... NOT USED
Multipole approximations                    ... NOT USED
Finite Nucleus Model                        ... NOT USED
CABS basis                                  ... NOT available
Auxiliary Coulomb fitting basis             ... AVAILABLE
   # of basis functions in Aux-J            ...    284
   # of shells in Aux-J                     ...    100
   Maximum angular momentum in Aux-J        ...      4
Auxiliary J/K fitting basis                 ... NOT available
Auxiliary Correlation fitting basis         ... NOT available
Auxiliary 'external' fitting basis          ... NOT available

Checking pre-screening integrals            ... done (  0.0 sec) Dimension = 48
   => SHARK Basis and OBASIS are compatible. Storing Pre-screening
Shell pair information
Shell pair cut-off parameter TPreSel        ...   2.5e-12
Total number of shell pairs                 ...      1176
Shell pairs after pre-screening             ...      1114
Total number of primitive shell pairs       ...      3992
Primitive shell pairs kept                  ...      2942
          la=0 lb=0:    392 shell pairs
          la=1 lb=0:    423 shell pairs
          la=1 lb=1:    125 shell pairs
          la=2 lb=0:    105 shell pairs
          la=2 lb=1:     59 shell pairs
          la=2 lb=2:     10 shell pairs

Checking whether 4 symmetric matrices of dimension 96 fit in memory
:Max Core in MB      =   1500.00
 MB in use           =      4.67
 MB left             =   1495.33
 MB needed           =      0.14
 Data fit in memory  = YES
Calculating RI/J V-Matrix + Cholesky decomp.... done (  0.0 sec)
Calculating Nuclear repulsion               ... done (  0.0 sec) ENN=    130.144158495898 Eh

Diagonalization of the overlap matrix:
Smallest eigenvalue                        ... 1.116e-02
Time for diagonalization                   ...    0.001 sec
Threshold for overlap eigenvalues          ... 1.000e-07
Number of eigenvalues below threshold      ... 0
Time for construction of square roots      ...    0.000 sec
Total time needed                          ...    0.002 sec

-------------------
DFT GRID GENERATION
-------------------

General Integration Accuracy     IntAcc      ... 4.388
Radial Grid Type                 RadialGrid  ... OptM3 with GC (2021)
Angular Grid (max. ang.)         AngularGrid ... 4 (Lebedev-302)
Angular grid pruning method      GridPruning ... 4 (adaptive)
Weight generation scheme         WeightScheme... mBecke (2022)
Basis function cutoff            BFCut       ... 1.0000e-11
Integration weight cutoff        WCut        ... 1.0000e-14
Partially contracted basis set               ... off
Rotationally invariant grid construction     ... off
Angular grids for H and He will be reduced by one unit

Total number of grid points                  ...    50434
Total number of batches                      ...      794
Average number of points per batch           ...       63
Average number of grid points per atom       ...     4203

--------------------
COSX GRID GENERATION
--------------------

GRIDX 1
-------
General Integration Accuracy     IntAcc      ... 3.816
Radial Grid Type                 RadialGrid  ... OptM3 with GC (2021)
Angular Grid (max. ang.)         AngularGrid ... 1 (Lebedev-50)
Angular grid pruning method      GridPruning ... 4 (adaptive)
Weight generation scheme         WeightScheme... mBecke (2022)
Basis function cutoff            BFCut       ... 1.0000e-11
Integration weight cutoff        WCut        ... 1.0000e-14
Partially contracted basis set               ... on
Rotationally invariant grid construction     ... off
Angular grids for H and He will be reduced by one unit

Total number of grid points                  ...     6534
Total number of batches                      ...       59
Average number of points per batch           ...      110
Average number of grid points per atom       ...      544
UseSFitting                                  ... on

GRIDX 2
-------
General Integration Accuracy     IntAcc      ... 4.020
Radial Grid Type                 RadialGrid  ... OptM3 with GC (2021)
Angular Grid (max. ang.)         AngularGrid ... 2 (Lebedev-110)
Angular grid pruning method      GridPruning ... 4 (adaptive)
Weight generation scheme         WeightScheme... mBecke (2022)
Basis function cutoff            BFCut       ... 1.0000e-11
Integration weight cutoff        WCut        ... 1.0000e-14
Partially contracted basis set               ... on
Rotationally invariant grid construction     ... off
Angular grids for H and He will be reduced by one unit

Total number of grid points                  ...    13652
Total number of batches                      ...      112
Average number of points per batch           ...      121
Average number of grid points per atom       ...     1138
UseSFitting                                  ... on

GRIDX 3
-------
General Integration Accuracy     IntAcc      ... 4.338
Radial Grid Type                 RadialGrid  ... OptM3 with GC (2021)
Angular Grid (max. ang.)         AngularGrid ... 3 (Lebedev-194)
Angular grid pruning method      GridPruning ... 4 (adaptive)
Weight generation scheme         WeightScheme... mBecke (2022)
Basis function cutoff            BFCut       ... 1.0000e-11
Integration weight cutoff        WCut        ... 1.0000e-14
Partially contracted basis set               ... on
Rotationally invariant grid construction     ... off
Angular grids for H and He will be reduced by one unit

Total number of grid points                  ...    29925
Total number of batches                      ...      241
Average number of points per batch           ...      124
Average number of grid points per atom       ...     2494
UseSFitting                                  ... on
Grids setup in   0.3 sec
Initializing property integral containers    ... done (  0.0 sec)

SHARK setup successfully completed in   0.4 seconds

Maximum memory used throughout the entire STARTUP-calculation: 15.0 MB
[1770538304.738960] [node068:2120547:0]     ucp_context.c:1234 UCX  WARN  transport 'ib' is not available, please use one or more of: mm, posix, self, shm, sm, sysv, tcp
[1770538304.755486] [node068:2120548:0]     ucp_context.c:1234 UCX  WARN  transport 'ib' is not available, please use one or more of: mm, posix, self, shm, sm, sysv, tcp
[1770538304.782952] [node068:2120551:0]     ucp_context.c:1234 UCX  WARN  transport 'ib' is not available, please use one or more of: mm, posix, self, shm, sm, sysv, tcp
[1770538304.809684] [node068:2120554:0]     ucp_context.c:1234 UCX  WARN  transport 'ib' is not available, please use one or more of: mm, posix, self, shm, sm, sysv, tcp


           ************************************************************
           *        Program running with 4 parallel MPI-processes     *
           *              working on a common directory               *
           ************************************************************
-------------------------------------------------------------------------------
                                 ORCA GUESS
                   Start orbitals & Density for SCF / CASSCF
-------------------------------------------------------------------------------

------------
SCF SETTINGS
------------
Hamiltonian:
 Density Functional     Method          .... DFT(GTOs)
 Exchange Functional    Exchange        .... B88
   X-Alpha parameter    XAlpha          ....  0.666667
   Becke's b parameter  XBeta           ....  0.004200
 Correlation Functional Correlation     .... LYP
 LDA part of GGA corr.  LDAOpt          .... VWN-5
 Gradients option       PostSCFGGA      .... off
 Hybrid DFT is turned on
   Fraction HF Exchange ScalHFX         ....  0.200000
   Scaling of DF-GGA-X  ScalDFX         ....  0.720000
   Scaling of DF-GGA-C  ScalDFC         ....  0.810000
   Scaling of DF-LDA-C  ScalLDAC        ....  1.000000
   Perturbative correction              ....  0.000000
   NL short-range parameter             ....  4.800000
 RI-approximation to the Coulomb term is turned on
   Number of AuxJ basis functions       .... 284
   RIJ-COSX (HFX calculated with COS-X)).... on


General Settings:
 Integral files         IntName         .... MeOH_dimer
 Hartree-Fock type      HFTyp           .... RHF
 Total Charge           Charge          ....    0
 Multiplicity           Mult            ....    1
 Number of Electrons    NEL             ....   36
 Basis Dimension        Dim             ....   96
 Nuclear Repulsion      ENuc            ....    130.1441584959 Eh

Convergence Acceleration:
 AO-DIIS                CNVDIIS         .... on
   Start iteration      DIISMaxIt       ....    12
   Startup error        DIISStart       ....  0.200000
   # of expansion vecs  DIISMaxEq       ....     5
   Bias factor          DIISBfac        ....   1.050
   Max. coefficient     DIISMaxC        ....  10.000
 MO-DIIS                CNVKDIIS        .... off
 Trust-Rad. Augm. Hess. CNVTRAH         .... auto
   Auto Start mean grad. ratio tolernc. ....  1.125000
   Auto Start start iteration           ....    50
   Auto Start num. interpolation iter.  ....    10
   Max. Number of Micro iterations      ....    24
   Max. Number of Macro iterations      .... Maxiter - #DIIS iter
   Number of Davidson start vectors     ....     2
   Converg. threshold    (grad. norm)   ....   1.000e-05
   Grad. Scal. Fac. for Micro threshold ....   0.100
   Minimum threshold for Micro iter.    ....   1.000e-02
   NR start threshold (gradient norm)   ....   1.000e-04
   Initial trust radius                 ....   0.400
   Minimum AH scaling param. (alpha)    ....   1.000
   Maximum AH scaling param. (alpha)    .... 1000.000
   Quad. conv. algorithm                .... NR
   White noise on init. David. guess    .... on
   Maximum white noise                  ....   0.010
   Pseudo random numbers                .... off
   Inactive MOs                         .... canonical
   Orbital update algorithm             .... Taylor
   Preconditioner                       .... Diag
   Full preconditioner red. dimension   ....   250
 SOSCF                 CNVSOSCF           .... on
   Start iteration     SOSCFMaxIt         ....   150
   Startup grad/error  SOSCFStart         ....  0.003300
   Hessian update      SOSCFHessUp        .... L-BFGS
   Autom. constraints  SOSCFAutoConstrain .... off
 Level Shifting         CNVShift        .... on
   Level shift para.    LevelShift      ....    0.2500
   Turn off err/grad.   ShiftErr        ....    0.0010
 Zerner damping         CNVZerner       .... off
 Static damping         CNVDamp         .... on
   Fraction old density DampFac         ....    0.7000
   Max. Damping (<1)    DampMax         ....    0.9800
   Min. Damping (>=0)   DampMin         ....    0.0000
   Turn off err/grad.   DampErr         ....    0.1000

SCF Procedure:
 Maximum # iterations   MaxIter         ....   125
 SCF integral mode      SCFMode         .... Direct
   Integral package                     .... SHARK and LIBINT hybrid scheme
 Reset frequency        DirectResetFreq ....    20
 Integral Threshold     Thresh          ....  2.500e-11 Eh
 Primitive CutOff       TCut            ....  2.500e-12 Eh

Convergence Tolerance:
 Convergence Check Mode ConvCheckMode   .... Total+1el-Energy
 Convergence forced     ConvForced      .... 0
 Energy Change          TolE            ....  1.000e-08 Eh
 1-El. energy change                    ....  1.000e-05 Eh
 Orbital Gradient       TolG            ....  1.000e-05
 Orbital Rotation angle TolX            ....  1.000e-05
 DIIS Error             TolErr          ....  5.000e-07

------------------------------
INITIAL GUESS: MODEL POTENTIAL
------------------------------
Loading Hartree-Fock densities                     ... done
Calculating cut-offs                               ... done
Initializing the effective Hamiltonian             ... done
Setting up the integral package (SHARK)            ... done
Starting the Coulomb interaction                   ... done (   0.0 sec)
Making the grid                                    ... done (   0.0 sec)
Mapping shells                                     ... done
Starting the XC term evaluation                    ... done (   0.0 sec)
  promolecular density results
     # of electrons  =     35.995868099
     EX              =    -29.031754164
     EC              =     -1.187725666
     EX+EC           =    -30.219479831
Transforming the Hamiltonian                       ... done (   0.0 sec)
Diagonalizing the Hamiltonian                      ... done (   0.0 sec)
Back transforming the eigenvectors                 ... done (   0.0 sec)
Now organizing SCF variables                       ... done
                      ------------------
                      INITIAL GUESS DONE (   0.1 sec)
                      ------------------
             **** ENERGY FILE WAS UPDATED (MeOH_dimer.en.tmp) ****
Finished Guess after   0.5 sec
Maximum memory used throughout the entire GUESS-calculation: 7.0 MB
[1770538306.316245] [node068:2120567:0]     ucp_context.c:1234 UCX  WARN  transport 'ib' is not available, please use one or more of: mm, posix, self, shm, sm, sysv, tcp
[1770538306.334731] [node068:2120568:0]     ucp_context.c:1234 UCX  WARN  transport 'ib' is not available, please use one or more of: mm, posix, self, shm, sm, sysv, tcp
[1770538306.358740] [node068:2120571:0]     ucp_context.c:1234 UCX  WARN  transport 'ib' is not available, please use one or more of: mm, posix, self, shm, sm, sysv, tcp
[1770538306.387703] [node068:2120574:0]     ucp_context.c:1234 UCX  WARN  transport 'ib' is not available, please use one or more of: mm, posix, self, shm, sm, sysv, tcp


           ************************************************************
           *        Program running with 4 parallel MPI-processes     *
           *              working on a common directory               *
           ************************************************************

-------------------------------------------------------------------------------------------
                                      ORCA LEAN-SCF
                              memory conserving SCF solver
-------------------------------------------------------------------------------------------

----------------------------------------D-I-I-S--------------------------------------------
Iteration    Energy (Eh)           Delta-E    RMSDP     MaxDP     DIISErr   Damp  Time(sec)
-------------------------------------------------------------------------------------------
               ***  Starting incremental Fock matrix formation  ***
    1    -230.9774135265091672     0.00e+00  9.12e-03  7.73e-02  2.52e-01  0.700   0.2
    2    -231.0537030107500414    -7.63e-02  5.95e-03  4.31e-02  1.07e-01  0.700   0.1
                               ***Turning on AO-DIIS***
    3    -231.0831530423953382    -2.95e-02  2.21e-03  1.36e-02  3.19e-02  0.700   0.1
    4    -231.1009708646498666    -1.78e-02  3.57e-03  2.41e-02  1.64e-02  0.000   0.1
    5    -231.1403993604507150    -3.94e-02  6.28e-04  4.31e-03  4.48e-03  0.000   0.1
                              *** Initializing SOSCF ***
---------------------------------------S-O-S-C-F--------------------------------------
Iteration    Energy (Eh)           Delta-E    RMSDP     MaxDP     MaxGrad    Time(sec)
--------------------------------------------------------------------------------------
    6    -231.1405197629860027    -1.20e-04  2.39e-04  1.57e-03  1.26e-03     0.1
               *** Restarting incremental Fock matrix formation ***
    7    -231.1405783872639290    -5.86e-05  1.42e-04  1.03e-03  1.57e-04     0.2
    8    -231.1405788467927209    -4.60e-07  3.66e-05  4.05e-04  1.49e-04     0.2
    9    -231.1405793764342889    -5.30e-07  2.10e-05  1.32e-04  3.30e-05     0.2
   10    -231.1405793822082728    -5.77e-09  5.71e-06  5.50e-05  3.46e-05     0.2
                 **** Energy Check signals convergence ****

               *****************************************************
               *                     SUCCESS                       *
               *           SCF CONVERGED AFTER  10 CYCLES          *
               *****************************************************

Recomputing exchange energy using gridx3       ... done (    0.299 sec)
Old exchange energy                            :     -5.930411397 Eh
New exchange energy                            :     -5.930404227 Eh
Exchange energy change after final integration :      0.000007171 Eh
Total energy after final integration           :   -231.140572229 Eh
             **** ENERGY FILE WAS UPDATED (MeOH_dimer.en.tmp) ****

----------------
TOTAL SCF ENERGY
----------------

Total Energy       :       -231.14057222856238 Eh           -6289.65473 eV

Components:
Nuclear Repulsion  :        130.14415849589756 Eh            3541.40259 eV
Electronic Energy  :       -361.28473789499674 Eh           -9831.05752 eV
One Electron Energy:       -572.97291698742288 Eh          -15591.38572 eV
Two Electron Energy:        211.68817909242611 Eh            5760.32820 eV

Virial components:
Potential Energy   :       -460.36116455304341 Eh          -12527.06415 eV
Kinetic Energy     :        229.22059232448103 Eh            6237.40942 eV
Virial Ratio       :          2.00837612312494

DFT components:
N(Alpha)           :       17.999986314498 electrons
N(Beta)            :       17.999986314498 electrons
N(Total)           :       35.999972628997 electrons
E(X)               :      -23.557439481598 Eh       
E(C)               :       -1.412155706214 Eh       
E(XC)              :      -24.969595187812 Eh       

---------------
SCF CONVERGENCE
---------------

  Last Energy change         ...    5.7740e-09  Tolerance :   1.0000e-08
  Last MAX-Density change    ...    5.5021e-05  Tolerance :   1.0000e-07
  Last RMS-Density change    ...    5.7146e-06  Tolerance :   5.0000e-09
  Last DIIS Error            ...    1.2554e-03  Tolerance :   5.0000e-07
  Last Orbital Gradient      ...    3.4590e-05  Tolerance :   1.0000e-05
  Last Orbital Rotation      ...    1.2990e-05  Tolerance :   1.0000e-05


----------------
ORBITAL ENERGIES
----------------

  NO   OCC          E(Eh)            E(eV) 
   0   2.0000     -19.155767      -521.2549 
   1   2.0000     -19.072036      -518.9765 
   2   2.0000     -10.243341      -278.7355 
   3   2.0000     -10.196062      -277.4490 
   4   2.0000      -1.028692       -27.9921 
   5   2.0000      -0.951204       -25.8836 
   6   2.0000      -0.690919       -18.8009 
   7   2.0000      -0.637647       -17.3513 
   8   2.0000      -0.528842       -14.3905 
   9   2.0000      -0.475214       -12.9312 
  10   2.0000      -0.459282       -12.4977 
  11   2.0000      -0.438254       -11.9255 
  12   2.0000      -0.410769       -11.1776 
  13   2.0000      -0.391190       -10.6448 
  14   2.0000      -0.361663        -9.8414 
  15   2.0000      -0.299207        -8.1418 
  16   2.0000      -0.282353        -7.6832 
  17   2.0000      -0.224993        -6.1224 
  18   0.0000       0.030367         0.8263 
  19   0.0000       0.081509         2.2180 
  20   0.0000       0.092650         2.5211 
  21   0.0000       0.122621         3.3367 
  22   0.0000       0.125981         3.4281 
  23   0.0000       0.157086         4.2745 
  24   0.0000       0.163356         4.4451 
  25   0.0000       0.164796         4.4843 
  26   0.0000       0.184969         5.0333 
  27   0.0000       0.281931         7.6717 
  28   0.0000       0.440081        11.9752 
*Only the first 10 virtual orbitals were printed.

                    ********************************
                    * MULLIKEN POPULATION ANALYSIS *
                    ********************************

-----------------------
MULLIKEN ATOMIC CHARGES
-----------------------
   0 O :   -0.386438
   1 C :    0.188795
   2 H :    0.155453
   3 H :    0.004479
   4 H :   -0.020251
   5 H :   -0.018370
   6 O :   -0.338676
   7 C :    0.161918
   8 H :    0.185196
   9 H :    0.037315
  10 H :    0.016601
  11 H :    0.013979
Sum of atomic charges:    0.0000000

--------------------------------
MULLIKEN REDUCED ORBITAL CHARGES
--------------------------------
  0 O s       :     3.735180  s :     3.735180
      pz      :     1.444607  p :     4.638602
      px      :     1.777342
      py      :     1.416653
      dz2     :     0.004906  d :     0.012657
      dxz     :     0.001988
      dyz     :     0.002464
      dx2y2   :     0.000757
      dxy     :     0.002541

  1 C s       :     2.976605  s :     2.976605
      pz      :     0.794798  p :     2.777363
      px      :     1.002593
      py      :     0.979973
      dz2     :     0.016174  d :     0.057237
      dxz     :     0.011999
      dyz     :     0.014967
      dx2y2   :     0.006737
      dxy     :     0.007360

  2 H s       :     0.773366  s :     0.773366
      pz      :     0.013693  p :     0.071181
      px      :     0.023635
      py      :     0.033852

  3 H s       :     0.973788  s :     0.973788
      pz      :     0.002581  p :     0.021733
      px      :     0.007527
      py      :     0.011624

  4 H s       :     0.998216  s :     0.998216
      pz      :     0.007424  p :     0.022035
      px      :     0.006934
      py      :     0.007677

  5 H s       :     0.996339  s :     0.996339
      pz      :     0.003837  p :     0.022031
      px      :     0.013286
      py      :     0.004908

  6 O s       :     3.738564  s :     3.738564
      pz      :     1.795715  p :     4.587777
      px      :     1.354234
      py      :     1.437828
      dz2     :     0.001330  d :     0.012335
      dxz     :     0.002256
      dyz     :     0.001873
      dx2y2   :     0.004382
      dxy     :     0.002494

  7 C s       :     2.998602  s :     2.998602
      pz      :     1.026649  p :     2.784374
      px      :     0.997574
      py      :     0.760152
      dz2     :     0.008485  d :     0.055106
      dxz     :     0.007007
      dyz     :     0.012556
      dx2y2   :     0.012601
      dxy     :     0.014457

  8 H s       :     0.748618  s :     0.748618
      pz      :     0.021822  p :     0.066186
      px      :     0.030459
      py      :     0.013904

  9 H s       :     0.940679  s :     0.940679
      pz      :     0.007420  p :     0.022006
      px      :     0.012248
      py      :     0.002338

 10 H s       :     0.961289  s :     0.961289
      pz      :     0.013185  p :     0.022110
      px      :     0.004833
      py      :     0.004093

 11 H s       :     0.963863  s :     0.963863
      pz      :     0.007568  p :     0.022158
      px      :     0.007541
      py      :     0.007049



                     *******************************
                     * LOEWDIN POPULATION ANALYSIS *
                     *******************************

----------------------
LOEWDIN ATOMIC CHARGES
----------------------
   0 O :   -0.194233
   1 C :    0.066421
   2 H :    0.034104
   3 H :    0.010114
   4 H :   -0.006488
   5 H :   -0.005455
   6 O :   -0.118700
   7 C :    0.077135
   8 H :    0.092064
   9 H :    0.025785
  10 H :    0.009933
  11 H :    0.009321

-------------------------------
LOEWDIN REDUCED ORBITAL CHARGES
-------------------------------
  0 O s       :     3.456346  s :     3.456346
      pz      :     1.493145  p :     4.715159
      px      :     1.767164
      py      :     1.454850
      dz2     :     0.008944  d :     0.022729
      dxz     :     0.002514
      dyz     :     0.004649
      dx2y2   :     0.001373
      dxy     :     0.005248

  1 C s       :     2.839498  s :     2.839498
      pz      :     0.873174  p :     2.965853
      px      :     1.066363
      py      :     1.026316
      dz2     :     0.036029  d :     0.128228
      dxz     :     0.026937
      dyz     :     0.031579
      dx2y2   :     0.015809
      dxy     :     0.017874

  2 H s       :     0.757186  s :     0.757186
      pz      :     0.035299  p :     0.208710
      px      :     0.071589
      py      :     0.101822

  3 H s       :     0.927951  s :     0.927951
      pz      :     0.009056  p :     0.061936
      px      :     0.019397
      py      :     0.033483

  4 H s       :     0.942528  s :     0.942528
      pz      :     0.024383  p :     0.063960
      px      :     0.017727
      py      :     0.021850

  5 H s       :     0.941498  s :     0.941498
      pz      :     0.012330  p :     0.063957
      px      :     0.038491
      py      :     0.013136

  6 O s       :     3.443745  s :     3.443745
      pz      :     1.780439  p :     4.651655
      px      :     1.402946
      py      :     1.468271
      dz2     :     0.002104  d :     0.023299
      dxz     :     0.004988
      dyz     :     0.002506
      dx2y2   :     0.008838
      dxy     :     0.004864

  7 C s       :     2.841965  s :     2.841965
      pz      :     1.077853  p :     2.958157
      px      :     1.034196
      py      :     0.846107
      dz2     :     0.019292  d :     0.122743
      dxz     :     0.016668
      dyz     :     0.029196
      dx2y2   :     0.027946
      dxy     :     0.029641

  8 H s       :     0.734732  s :     0.734732
      pz      :     0.059088  p :     0.173204
      px      :     0.078807
      py      :     0.035309

  9 H s       :     0.911056  s :     0.911056
      pz      :     0.019384  p :     0.063159
      px      :     0.035446
      py      :     0.008329

 10 H s       :     0.925215  s :     0.925215
      pz      :     0.038253  p :     0.064852
      px      :     0.013228
      py      :     0.013371

 11 H s       :     0.925924  s :     0.925924
      pz      :     0.020302  p :     0.064755
      px      :     0.021947
      py      :     0.022506



                      *****************************
                      * MAYER POPULATION ANALYSIS *
                      *****************************

  NA   - Mulliken gross atomic population
  ZA   - Total nuclear charge
  QA   - Mulliken gross atomic charge
  VA   - Mayer's total valence
  BVA  - Mayer's bonded valence
  FA   - Mayer's free valence

  ATOM       NA         ZA         QA         VA         BVA        FA
  0 O      8.3864     8.0000    -0.3864     2.0342     2.0342     0.0000
  1 C      5.8112     6.0000     0.1888     3.9829     3.9829     0.0000
  2 H      0.8445     1.0000     0.1555     1.0982     1.0982     0.0000
  3 H      0.9955     1.0000     0.0045     0.9817     0.9817     0.0000
  4 H      1.0203     1.0000    -0.0203     0.9757     0.9757    -0.0000
  5 H      1.0184     1.0000    -0.0184     0.9773     0.9773     0.0000
  6 O      8.3387     8.0000    -0.3387     2.1196     2.1196     0.0000
  7 C      5.8381     6.0000     0.1619     3.9360     3.9360     0.0000
  8 H      0.8148     1.0000     0.1852     0.9959     0.9959     0.0000
  9 H      0.9627     1.0000     0.0373     0.9888     0.9888    -0.0000
 10 H      0.9834     1.0000     0.0166     0.9818     0.9818     0.0000
 11 H      0.9860     1.0000     0.0140     0.9811     0.9811     0.0000

  Mayer bond orders larger than 0.100000
B(  0-O ,  1-C ) :   1.0471 B(  0-O ,  2-H ) :   0.9362 B(  1-C ,  3-H ) :   0.9815 
B(  1-C ,  4-H ) :   0.9705 B(  1-C ,  5-H ) :   0.9706 B(  2-H ,  6-O ) :   0.1335 
B(  6-O ,  7-C ) :   0.9816 B(  6-O ,  8-H ) :   0.9691 B(  7-C ,  9-H ) :   0.9816 
B(  7-C , 10-H ) :   0.9783 B(  7-C , 11-H ) :   0.9783 

-------
TIMINGS
-------

Total SCF time: 0 days 0 hours 0 min 2 sec 

Total time                  ....       2.567 sec
Sum of individual times     ....       2.385 sec  ( 92.9%)

SCF preparation             ....       0.412 sec  ( 16.1%)
Fock matrix formation       ....       1.891 sec  ( 73.7%)
  Startup                   ....       0.002 sec  (  0.1% of F)
  Split-RI-J                ....       0.132 sec  (  7.0% of F)
  Chain of spheres X        ....       1.428 sec  ( 75.5% of F)
  XC integration            ....       0.438 sec  ( 23.2% of F)
    Basis function eval.    ....       0.150 sec  ( 34.3% of XC)
    Density eval.           ....       0.066 sec  ( 15.2% of XC)
    XC-Functional eval.     ....       0.038 sec  (  8.8% of XC)
    XC-Potential eval.      ....       0.082 sec  ( 18.7% of XC)
Diagonalization             ....       0.000 sec  (  0.0%)
Density matrix formation    ....       0.011 sec  (  0.4%)
Total Energy calculation    ....       0.007 sec  (  0.3%)
Population analysis         ....       0.006 sec  (  0.2%)
Orbital Transformation      ....       0.007 sec  (  0.3%)
Orbital Orthonormalization  ....       0.000 sec  (  0.0%)
DIIS solution               ....       0.033 sec  (  1.3%)
SOSCF solution              ....       0.018 sec  (  0.7%)
Finished LeanSCF after   2.6 sec

Maximum memory used throughout the entire LEANSCF-calculation: 8.6 MB
[1770538310.004244] [node068:2120587:0]     ucp_context.c:1234 UCX  WARN  transport 'ib' is not available, please use one or more of: mm, posix, self, shm, sm, sysv, tcp
[1770538310.023846] [node068:2120588:0]     ucp_context.c:1234 UCX  WARN  transport 'ib' is not available, please use one or more of: mm, posix, self, shm, sm, sysv, tcp
[1770538310.045321] [node068:2120591:0]     ucp_context.c:1234 UCX  WARN  transport 'ib' is not available, please use one or more of: mm, posix, self, shm, sm, sysv, tcp
[1770538310.074084] [node068:2120594:0]     ucp_context.c:1234 UCX  WARN  transport 'ib' is not available, please use one or more of: mm, posix, self, shm, sm, sysv, tcp


           ************************************************************
           *        Program running with 4 parallel MPI-processes     *
           *              working on a common directory               *
           ************************************************************

------------------------------------------------------------------------------
                         ORCA PROPERTY INTEGRAL CALCULATIONS
------------------------------------------------------------------------------

GBWName                                   ... MeOH_dimer.gbw
Number of atoms                           ...     12
Number of basis functions                 ...     96
Max core memory                           ...   1500 MB

Dipole integrals                          ... YES
Quadrupole integrals                      ...  NO
Linear momentum integrals                 ...  NO
Angular momentum integrals                ...  NO
Higher moments length integrals           ...  NO
Higher moments velocity integrals         ...  NO
Kinetic energy integrals                  ...  NO
GIAO right hand sides                     ...  NO
GIAO dipole derivative integrals          ...  NO
SOC integrals                             ...  NO
EPR diamagnetic integrals (GIAO)          ...  NO
EPR gauge integrals                       ...  NO
Field gradient integrals                  ...  NO (   0 nuclei)
Spin-dipole/Fermi contact integrals       ...  NO (   0 nuclei)
Contact density integrals                 ...  NO (   0 nuclei)
Nucleus-orbit integrals                   ...  NO (   0 nuclei)
Geometric perturbations                   ...  NO (  12 nuclei)

Choice of electric origin   ... Center of mass
Position of electric origin ... ( -7.3207,  0.9964, -1.2094) 
Choice of magnetic origin   ... GIAO
Position of magnetic origin ... (  0.0000,  0.0000,  0.0000) 

Calculating integrals                     ... Electric Dipole (Length)     done (  0.0 sec)

Property integrals calculated in   0.0 sec

Maximum memory used throughout the entire PROPINT-calculation: 7.2 MB

-------------------------   --------------------
FINAL SINGLE POINT ENERGY      -231.140572228562
-------------------------   --------------------

[1770538311.509385] [node068:2120607:0]     ucp_context.c:1234 UCX  WARN  transport 'ib' is not available, please use one or more of: mm, posix, self, shm, sm, sysv, tcp
[1770538311.528512] [node068:2120608:0]     ucp_context.c:1234 UCX  WARN  transport 'ib' is not available, please use one or more of: mm, posix, self, shm, sm, sysv, tcp
[1770538311.549773] [node068:2120611:0]     ucp_context.c:1234 UCX  WARN  transport 'ib' is not available, please use one or more of: mm, posix, self, shm, sm, sysv, tcp
[1770538311.576926] [node068:2120614:0]     ucp_context.c:1234 UCX  WARN  transport 'ib' is not available, please use one or more of: mm, posix, self, shm, sm, sysv, tcp


           ************************************************************
           *        Program running with 4 parallel MPI-processes     *
           *              working on a common directory               *
           ************************************************************
------------------------------------------------------------------------------
                         ORCA SCF GRADIENT CALCULATION
------------------------------------------------------------------------------

Nuc. rep. gradient        (SHARK) ... done (  0.0 sec)
HCore & Overlap gradient  (SHARK) ... done (  0.0 sec)
Split-RIJ-J gradient      (SHARK) ... done (  0.1 sec)
done (  1.0 sec)
XC gradient                       ... done (  0.2 sec)

------------------
CARTESIAN GRADIENT
------------------

   1   O   :    0.000288860    0.000903118   -0.002116983
   2   C   :   -0.001204292    0.013645356    0.023684970
   3   H   :    0.003823443   -0.008295407    0.004495275
   4   H   :    0.002879394   -0.005361168   -0.000885381
   5   H   :    0.003228979    0.000718482   -0.013662806
   6   H   :   -0.007420810   -0.005150816   -0.010167382
   7   O   :   -0.009783767    0.003800310    0.000715753
   8   C   :   -0.005628698   -0.009416796    0.002193207
   9   H   :    0.007229468   -0.006413448   -0.003866262
  10   H   :    0.003375324   -0.001523843   -0.001846683
  11   H   :    0.004330616    0.007958511    0.005435592
  12   H   :   -0.001118517    0.009135702   -0.003979301

Difference to translation invariance:
           :   -0.0000000001    0.0000000001    0.0000000000

Difference to rotation invariance:
           :   -0.0000015985    0.0000381238    0.0000020164

Norm of the Cartesian gradient     ...    0.0430296623
RMS gradient                       ...    0.0071716104
MAX gradient                       ...    0.0236849700

-------
TIMINGS
-------

Total SCF gradient time     ....        1.337 sec

Densities                   ....       0.000 sec  (  0.0%)
One electron gradient       ....       0.016 sec  (  1.2%)
RI-J Coulomb gradient       ....       0.079 sec  (  5.9%)
COSX gradient               ....       0.994 sec  ( 74.4%)
XC gradient                 ....       0.247 sec  ( 18.5%)

Maximum memory used throughout the entire SCFGRAD-calculation: 11.1 MB
------------------------------------------------------------------------------
                         ORCA GEOMETRY RELAXATION STEP
------------------------------------------------------------------------------

Reading the OPT-File                    .... done
Getting information on internals        .... done
Copying old internal coords+grads       .... done
Making the new internal coordinates     .... (2022 redundants) done
Validating the new internal coordinates .... (2022 redundants) done
Calculating the B-matrix                .... done
Calculating the G,G- and P matrices     .... done
Transforming gradient to internals      .... done
Projecting the internal gradient        .... done
Number of atoms                         ....  12
Number of internal coordinates          ....  40
Current Energy                          ....  -231.140572229 Eh
Current gradient norm                   ....     0.043029662 Eh/bohr
Maximum allowed component of the step   ....  0.300
Current trust radius                    ....  0.300
Evaluating the initial hessian          ....  (Almloef) done
Projecting the Hessian                  .... done
Forming the augmented Hessian           .... done
Diagonalizing the augmented Hessian     .... done
Last element of RFO vector              ....  0.987646685
Lowest eigenvalues of augmented Hessian:
 -0.004123376  0.010002311  0.020581398  0.021666506  0.029750074
Length of the computed step             ....  0.158657181
The final length of the internal step   ....  0.158657181
Converting the step to Cartesian space:
 Initial RMS(Int)=    0.0250859029
Transforming coordinates:
 Iter   0:  RMS(Cart)=    0.0427744197 RMS(Int)=    0.0251687222
 Iter   5:  RMS(Cart)=    0.0000197657 RMS(Int)=    0.0000081735
 Iter  10:  RMS(Cart)=    0.0000006434 RMS(Int)=    0.0000002660
done
Storing new coordinates                 .... done

                                .--------------------.
          ----------------------|Geometry convergence|-------------------------
          Item                value                   Tolerance       Converged
          ---------------------------------------------------------------------
          RMS gradient        0.0056209791            0.0001000000      NO
          MAX gradient        0.0113192892            0.0003000000      NO
          RMS step            0.0250859029            0.0020000000      NO
          MAX step            0.1169381796            0.0040000000      NO
          -------------------------------------------------------------------------
          ........................................................
          Max(Bonds)      0.0619      Max(Angles)    2.03
          Max(Dihed)        0.93      Max(Improp)    0.00
          ---------------------------------------------------------------------

The optimization has not yet converged - more geometry cycles are needed


    ---------------------------------------------------------------------------
                         Redundant Internal Coordinates
                            (Angstroem and degrees)

        Definition                    Value    dE/dq     Step     New-Value
    ----------------------------------------------------------------------------
     1. B(C   1,O   0)                1.4153  0.000657 -0.0007    1.4146   
     2. B(H   2,O   0)                0.9825  0.005430 -0.0060    0.9766   
     3. B(H   3,C   1)                1.0925 -0.006049  0.0089    1.1014   
     4. B(H   4,C   1)                1.0924 -0.010966  0.0161    1.1085   
     5. B(H   5,C   1)                1.0928 -0.010585  0.0155    1.1084   
     6. B(O   6,H   2)                1.7429 -0.003909  0.0619    1.8048   
     7. B(C   7,O   6)                1.4193 -0.005913  0.0062    1.4255   
     8. B(H   8,O   6)                0.9751  0.008870 -0.0095    0.9657   
     9. B(H   9,C   7)                1.0929 -0.003940  0.0058    1.0987   
    10. B(H  10,C   7)                1.0925 -0.008405  0.0123    1.1049   
    11. B(H  11,C   7)                1.0923 -0.008343  0.0122    1.1045   
    12. A(C   1,O   0,H   2)          106.12 -0.002986    0.48    106.60   
    13. A(O   0,C   1,H   4)          109.55 -0.011319    2.03    111.58   
    14. A(H   3,C   1,H   5)          109.31  0.005400   -1.10    108.21   
    15. A(H   3,C   1,H   4)          109.36  0.005654   -1.15    108.20   
    16. A(O   0,C   1,H   3)          108.99  0.003202   -0.58    108.41   
    17. A(H   4,C   1,H   5)          110.07  0.008008   -1.18    108.89   
    18. A(O   0,C   1,H   5)          109.55 -0.010920    1.97    111.52   
    19. L(O   0,H   2,O   6,C   1, 1) 179.62  0.001017   -0.42    179.20   
    20. L(O   0,H   2,O   6,C   1, 2) 184.00  0.000782   -0.21    183.79   
    21. A(H   2,O   6,H   8)          123.49  0.003414   -0.76    122.74   
    22. A(H   2,O   6,C   7)          121.02  0.002556   -0.39    120.63   
    23. A(C   7,O   6,H   8)          106.35 -0.006070    1.18    107.53   
    24. A(H  10,C   7,H  11)          110.17  0.005482   -0.56    109.61   
    25. A(H   9,C   7,H  11)          109.41  0.002509   -0.69    108.73   
    26. A(O   6,C   7,H  11)          109.51 -0.007389    1.38    110.89   
    27. A(H   9,C   7,H  10)          109.39  0.003026   -0.75    108.64   
    28. A(O   6,C   7,H  10)          109.44 -0.008909    1.65    111.09   
    29. A(O   6,C   7,H   9)          108.89  0.005300   -1.04    107.85   
    30. D(H   5,C   1,O   0,H   2)     59.65 -0.001943    0.36     60.01   
    31. D(H   3,C   1,O   0,H   2)    179.20  0.000045   -0.15    179.06   
    32. D(H   4,C   1,O   0,H   2)    -61.18  0.002100   -0.69    -61.87   
    33. D(H   8,O   6,O   0,C   1)   -112.04 -0.001487    0.85   -111.19   
    34. D(C   7,O   6,O   0,C   1)    105.38  0.001198    0.21    105.59   
    35. D(H   9,C   7,O   6,H   2)    -33.16  0.000313    0.15    -33.01   
    36. D(H   9,C   7,O   6,H   8)    178.90 -0.000354    0.29    179.19   
    37. D(H  11,C   7,O   6,H   8)     59.30 -0.002201    0.93     60.23   
    38. D(H  10,C   7,O   6,H   2)     86.37  0.001883   -0.40     85.97   
    39. D(H  11,C   7,O   6,H   2)   -152.76 -0.001533    0.80   -151.97   
    40. D(H  10,C   7,O   6,H   8)    -61.56  0.001215   -0.27    -61.83   
    ----------------------------------------------------------------------------

Geometry step timings:
Preparation and reading OPT file:      0.000 s ( 1.824 %)
Internal coordinates            :      0.000 s ( 5.026 %)
B/P matrices and projection     :      0.000 s (16.822 %)
Hessian update/contruction      :      0.000 s ( 8.391 %)
Making the step                 :      0.000 s (15.768 %)
Converting the step to Cartesian:      0.000 s ( 6.526 %)
Storing new data                :      0.000 s ( 2.432 %)
Checking convergence            :      0.000 s ( 7.175 %)
Final printing                  :      0.001 s (35.752 %)
Total time                      :      0.002 s
[1770538314.357415] [node068:2120627:0]     ucp_context.c:1234 UCX  WARN  transport 'ib' is not available, please use one or more of: mm, posix, self, shm, sm, sysv, tcp
[1770538314.372838] [node068:2120628:0]     ucp_context.c:1234 UCX  WARN  transport 'ib' is not available, please use one or more of: mm, posix, self, shm, sm, sysv, tcp
[1770538314.399472] [node068:2120630:0]     ucp_context.c:1234 UCX  WARN  transport 'ib' is not available, please use one or more of: mm, posix, self, shm, sm, sysv, tcp
[1770538314.427005] [node068:2120634:0]     ucp_context.c:1234 UCX  WARN  transport 'ib' is not available, please use one or more of: mm, posix, self, shm, sm, sysv, tcp

Time for energy+gradient        :     11.473 s
Time for complete geometry iter :     12.951 s

         *************************************************************
         *                GEOMETRY OPTIMIZATION CYCLE   2            *
         *************************************************************
---------------------------------
CARTESIAN COORDINATES (ANGSTROEM)
---------------------------------
  O     -4.516955    1.864133   -1.062238
  C     -4.473917    2.468622    0.216030
  H     -4.005496    1.034847   -0.995997
  H     -5.029578    3.418491    0.170426
  H     -4.947316    1.827156    0.986180
  H     -3.433051    2.690701    0.525423
  O     -2.986569   -0.449777   -0.873480
  C     -3.588015   -1.741011   -0.818998
  H     -2.140777   -0.541834   -1.330273
  H     -4.544555   -1.644908   -0.287146
  H     -3.785595   -2.130446   -1.833906
  H     -2.945867   -2.451383   -0.268509

----------------------------
CARTESIAN COORDINATES (A.U.)
----------------------------
  NO LB      ZA    FRAG     MASS         X           Y           Z
   0 O     8.0000    0    15.999   -8.535807    3.522700   -2.007338
   1 C     6.0000    0    12.011   -8.454478    4.665019    0.408238
   2 H     1.0000    0     1.008   -7.569290    1.955578   -1.882161
   3 H     1.0000    0     1.008   -9.504524    6.460013    0.322058
   4 H     1.0000    0     1.008   -9.349073    3.452824    1.863611
   5 H     1.0000    0     1.008   -6.487526    5.084687    0.992906
   6 O     8.0000    0    15.999   -5.643798   -0.849955   -1.650639
   7 C     6.0000    0    12.011   -6.780367   -3.290035   -1.547683
   8 H     1.0000    0     1.008   -4.045481   -1.023917   -2.513851
   9 H     1.0000    0     1.008   -8.587964   -3.108426   -0.542627
  10 H     1.0000    0     1.008   -7.153738   -4.025960   -3.465580
  11 H     1.0000    0     1.008   -5.566883   -4.632443   -0.507408

--------------------------------
INTERNAL COORDINATES (ANGSTROEM)
--------------------------------
 O      0   0   0     0.000000000000     0.00000000     0.00000000
 C      1   0   0     1.414647527786     0.00000000     0.00000000
 H      1   2   0     0.976571962682   106.59689610     0.00000000
 H      2   1   3     1.101404119759   108.40636959   179.05790108
 H      2   1   3     1.108475042994   111.56339884   298.10397444
 H      2   1   3     1.108352246666   111.49530376    60.04094765
 O      3   1   2     1.804807102848   177.20794451   285.29172019
 C      7   3   1     1.425479842514   120.63168627   179.79000943
 H      7   3   1     0.965660156415   122.73747457   322.63011453
 H      8   7   3     1.098667575177   107.85507606   326.99478709
 H      8   7   3     1.104868454887   111.07692128    85.95710407
 H      8   7   3     1.104545532775   110.87445956   208.05107949

---------------------------
INTERNAL COORDINATES (A.U.)
---------------------------
 O      0   0   0     0.000000000000     0.00000000     0.00000000
 C      1   0   0     2.673296403544     0.00000000     0.00000000
 H      1   2   0     1.845453559535   106.59689610     0.00000000
 H      2   1   3     2.081352149117   108.40636959   179.05790108
 H      2   1   3     2.094714257545   111.56339884   298.10397444
 H      2   1   3     2.094482206115   111.49530376    60.04094765
 O      3   1   2     3.410591148939   177.20794451   285.29172019
 C      7   3   1     2.693766511777   120.63168627   179.79000943
 H      7   3   1     1.824833234065   122.73747457   322.63011453
 H      8   7   3     2.076180829304   107.85507606   326.99478709
 H      8   7   3     2.087898793745   111.07692128    85.95710407
 H      8   7   3     2.087288559390   110.87445956   208.05107949

[1770538315.834161] [node068:2120647:0]     ucp_context.c:1234 UCX  WARN  transport 'ib' is not available, please use one or more of: mm, posix, self, shm, sm, sysv, tcp
[1770538315.850873] [node068:2120648:0]     ucp_context.c:1234 UCX  WARN  transport 'ib' is not available, please use one or more of: mm, posix, self, shm, sm, sysv, tcp
[1770538315.875427] [node068:2120650:0]     ucp_context.c:1234 UCX  WARN  transport 'ib' is not available, please use one or more of: mm, posix, self, shm, sm, sysv, tcp
[1770538315.901506] [node068:2120654:0]     ucp_context.c:1234 UCX  WARN  transport 'ib' is not available, please use one or more of: mm, posix, self, shm, sm, sysv, tcp


           ************************************************************
           *        Program running with 4 parallel MPI-processes     *
           *              working on a common directory               *
           ************************************************************
------------------------------------------------------------------------------
                   ___                                                        
                  /   \      - P O W E R E D   B Y -                         
                 /     \                                                     
                 |  |  |   _    _      __       _____    __    __             
                 |  |  |  | |  | |    /  \     |  _  \  |  |  /  |          
                  \  \/   | |  | |   /    \    | | | |  |  | /  /          
                 / \  \   | |__| |  /  /\  \   | |_| |  |  |/  /          
                |  |  |   |  __  | /  /__\  \  |    /   |      \           
                |  |  |   | |  | | |   __   |  |    \   |  |\   \          
                \     /   | |  | | |  |  |  |  | |\  \  |  | \   \       
                 \___/    |_|  |_| |__|  |__|  |_| \__\ |__|  \__/        
                                                                              
                      - O R C A' S   B I G   F R I E N D -                    
                                      &                                       
                       - I N T E G R A L  F E E D E R -                       
                                                                              
 v1 FN, 2020, v2 2021, v3 2022-2024                                           
------------------------------------------------------------------------------


----------------------
SHARK INTEGRAL PACKAGE
----------------------

Number of atoms                             ...     12
Number of basis functions                   ...     96
Number of shells                            ...     48
Maximum angular momentum                    ...      2
Integral batch strategy                     ... SHARK/LIBINT Hybrid
RI-J (if used) integral strategy            ... SPLIT-RIJ (Revised 2003 algorithm where possible)
Printlevel                                  ...      1
Contraction scheme used                     ... SEGMENTED contraction
Prescreening option                         ... SCHWARTZ
   Thresh                                   ... 2.500e-11
   Tcut                                     ... 2.500e-12
   Tpresel                                  ... 2.500e-12 
Coulomb Range Separation                    ... NOT USED
Exchange Range Separation                   ... NOT USED
Multipole approximations                    ... NOT USED
Finite Nucleus Model                        ... NOT USED
CABS basis                                  ... NOT available
Auxiliary Coulomb fitting basis             ... AVAILABLE
   # of basis functions in Aux-J            ...    284
   # of shells in Aux-J                     ...    100
   Maximum angular momentum in Aux-J        ...      4
Auxiliary J/K fitting basis                 ... NOT available
Auxiliary Correlation fitting basis         ... NOT available
Auxiliary 'external' fitting basis          ... NOT available

Checking pre-screening integrals            ... done (  0.0 sec) Dimension = 48
   => SHARK Basis and OBASIS are compatible. Storing Pre-screening
Shell pair information
Shell pair cut-off parameter TPreSel        ...   2.5e-12
Total number of shell pairs                 ...      1176
Shell pairs after pre-screening             ...      1110
Total number of primitive shell pairs       ...      3992
Primitive shell pairs kept                  ...      2914
          la=0 lb=0:    391 shell pairs
          la=1 lb=0:    421 shell pairs
          la=1 lb=1:    124 shell pairs
          la=2 lb=0:    105 shell pairs
          la=2 lb=1:     59 shell pairs
          la=2 lb=2:     10 shell pairs

Checking whether 4 symmetric matrices of dimension 96 fit in memory
:Max Core in MB      =   1500.00
 MB in use           =      4.73
 MB left             =   1495.27
 MB needed           =      0.14
 Data fit in memory  = YES
Calculating RI/J V-Matrix + Cholesky decomp.... done (  0.0 sec)
Calculating Nuclear repulsion               ... done (  0.0 sec) ENN=    128.941572991502 Eh

Diagonalization of the overlap matrix:
Smallest eigenvalue                        ... 1.165e-02
Time for diagonalization                   ...    0.001 sec
Threshold for overlap eigenvalues          ... 1.000e-07
Number of eigenvalues below threshold      ... 0
Time for construction of square roots      ...    0.000 sec
Total time needed                          ...    0.002 sec

-------------------
DFT GRID GENERATION
-------------------

General Integration Accuracy     IntAcc      ... 4.388
Radial Grid Type                 RadialGrid  ... OptM3 with GC (2021)
[...]
     21       0.023406   0.019326  -0.020248  -0.001479   0.000037  -0.010639
     22       0.018460   0.004241  -0.065485  -0.008162   0.001124  -0.049573
     23       0.016636   0.051670   0.001630  -0.003031  -0.000522  -0.001196
     24       0.012552   0.004800   0.053528   0.023924   0.000616  -0.005284
     25       0.021570   0.002546   0.100845   0.044904   0.001709  -0.001397
     26       0.002996   0.006633   0.008656   0.004141   0.000175   0.002709
     27      -0.112200  -0.136505  -0.046389  -0.036392  -0.006433   0.277573
     28      -0.167213  -0.025715  -0.074847  -0.089655   0.000330  -0.129738
     29      -0.229714  -0.669194  -0.050891   0.031652   0.001712  -0.053633
     30      -0.273338  -0.500938  -0.017768  -0.006512  -0.000451   0.024454
     31      -0.034362   0.034237   0.592327   0.127266  -0.004571   0.302944
     32       0.048423   0.033581  -0.341283  -0.072125  -0.009516   0.576877
     33       0.007465   0.356630   0.155257  -0.027014   0.003900  -0.144327
     34      -0.056632  -0.049714   0.495620   0.110432  -0.011799   0.439966
     35      -0.051324  -0.118584   0.428582   0.107074   0.014641  -0.510046
                 30         31         32         33         34         35    
      0       0.000421  -0.000100  -0.001837   0.000090  -0.050773   0.001649
      1       0.000311   0.000038   0.000739  -0.000299   0.035840  -0.001184
      2      -0.000095  -0.000082  -0.000389  -0.000052   0.008027  -0.000303
      3      -0.036653  -0.000446   0.079264  -0.000059  -0.001470   0.000045
      4      -0.070928  -0.000257  -0.042540   0.000177   0.001131  -0.000003
      5       0.048598   0.000723   0.001960  -0.000017   0.000805  -0.000046
      6      -0.000419   0.001707   0.017491   0.000178   0.815070  -0.027028
      7       0.005713   0.000071  -0.005984   0.003013  -0.563043   0.018406
      8      -0.001432   0.001560   0.004625  -0.000014  -0.111858   0.005447
      9       0.030454   0.005250  -0.819865   0.001372   0.017426  -0.000285
     10      -0.043993  -0.003389   0.494769  -0.000891  -0.012649   0.000184
     11       0.005915  -0.000964   0.118822  -0.000083  -0.006627   0.000180
     12      -0.097806  -0.001076  -0.005300   0.000161  -0.001163   0.000063
     13       0.471638   0.005278   0.119388  -0.000355   0.002982  -0.000273
     14      -0.585520  -0.007154  -0.147475   0.000814  -0.014203   0.000689
     15       0.498273   0.001230  -0.107953  -0.000909  -0.007154   0.000091
     16       0.405985   0.000939  -0.112400  -0.000701  -0.009078   0.000209
     17       0.004140  -0.000265   0.007250   0.000076  -0.005427   0.000150
     18      -0.000035   0.000003  -0.000067  -0.001125  -0.002447  -0.056706
     19       0.000037  -0.000162  -0.000053   0.000953   0.000899   0.019046
     20      -0.000083  -0.000661  -0.000028   0.000316   0.000636   0.018722
     21      -0.000294   0.014800   0.000389   0.074204   0.001758  -0.000750
     22      -0.000865  -0.008601   0.000331  -0.051375   0.001558   0.002016
     23      -0.000796   0.093553   0.000389  -0.016712  -0.000189   0.000650
     24       0.000179  -0.002382   0.000269   0.008440   0.026863   0.893552
     25      -0.000390   0.001946  -0.000500  -0.011423  -0.018334  -0.324884
     26      -0.000001  -0.002693  -0.000003  -0.002711  -0.008360  -0.301298
     27       0.003829  -0.007395  -0.003202  -0.849984  -0.004818   0.010627
     28      -0.001774   0.002513   0.001649   0.395995  -0.001585  -0.006567
     29      -0.000313   0.022489   0.000782   0.166391   0.000815  -0.002368
     30       0.000905  -0.012200  -0.000358   0.012713  -0.002696   0.003668
     31       0.008351  -0.349543  -0.003778   0.090132  -0.005095   0.001848
     32       0.015394  -0.630986  -0.006435   0.186729  -0.004175  -0.001256
     33      -0.001301  -0.154629   0.000008  -0.039033  -0.002247   0.001582
     34       0.004407   0.449718  -0.001093   0.123909  -0.008360   0.003579
     35      -0.004952  -0.493571   0.001068  -0.156043   0.004990  -0.001098


-----------
IR SPECTRUM
-----------

 Mode   freq       eps      Int      T**2         TX        TY        TZ
       cm**-1   L/(mol*cm) km/mol    a.u.
----------------------------------------------------------------------------
  6:     50.66   0.002112   10.67  0.013009  (-0.000243 -0.050490  0.102274)
  7:     86.20   0.001543    7.80  0.005587  (-0.038517 -0.021561 -0.060317)
  8:     94.09   0.002139   10.81  0.007094  (-0.061735  0.052318 -0.023350)
  9:    106.21   0.002755   13.92  0.008096  (-0.006644 -0.014290 -0.088584)
 10:    136.60   0.000689    3.48  0.001575  (-0.008847 -0.038598 -0.002595)
 11:    229.24   0.000942    4.76  0.001283  ( 0.022901 -0.027477  0.001801)
 12:    316.61   0.019241   97.24  0.018965  (-0.035124  0.003979 -0.133098)
 13:    732.47   0.033062  167.08  0.014086  ( 0.011968  0.106209 -0.051596)
 14:   1070.85   0.021082  106.54  0.006144  ( 0.038590  0.068172 -0.002635)
 15:   1082.83   0.010676   53.95  0.003077  (-0.028962 -0.047266 -0.001935)
 16:   1109.70   0.022121  111.79  0.006221  ( 0.005023  0.039969  0.067808)
 17:   1122.83   0.000077    0.39  0.000021  (-0.002177 -0.001112  0.003916)
 18:   1173.42   0.000171    0.87  0.000046  (-0.000013 -0.000726  0.006709)
 19:   1177.01   0.000232    1.17  0.000062  ( 0.003375  0.007021 -0.000914)
 20:   1348.16   0.004798   24.25  0.001111  (-0.022748 -0.024352  0.000115)
 21:   1423.63   0.006197   31.32  0.001358  ( 0.003430  0.019662  0.030986)
 22:   1461.48   0.000123    0.62  0.000026  (-0.001963 -0.003443  0.003258)
 23:   1465.97   0.000255    1.29  0.000054  (-0.003000 -0.006715 -0.000472)
 24:   1474.95   0.001569    7.93  0.000332  ( 0.002308  0.013552  0.011955)
 25:   1478.51   0.001269    6.41  0.000268  (-0.001997 -0.000989 -0.016214)
 26:   1488.28   0.000784    3.96  0.000164  (-0.011069 -0.006449 -0.000586)
 27:   1498.73   0.001391    7.03  0.000290  (-0.008411  0.012407  0.008058)
 28:   2948.45   0.017603   88.96  0.001863  ( 0.014057  0.024293  0.032793)
 29:   2990.27   0.011569   58.47  0.001207  (-0.007416 -0.033939 -0.000709)
 30:   2994.07   0.018114   91.54  0.001888  (-0.017020 -0.032841  0.022800)
 31:   3055.84   0.010732   54.23  0.001096  ( 0.005430 -0.003880  0.032425)
 32:   3082.19   0.010235   51.73  0.001036  ( 0.027210 -0.017183 -0.000806)
 33:   3137.10   0.001487    7.51  0.000148  ( 0.010192 -0.005796 -0.003224)
 34:   3683.70   0.083101  419.96  0.007040  ( 0.046911 -0.067060 -0.018498)
 35:   3831.26   0.007707   38.95  0.000628  ( 0.023934 -0.000961 -0.007350)

* The epsilon (eps) is given for a Dirac delta lineshape.
** The dipole moment derivative (T) already includes vibrational overlap.

The first frequency considered to be a vibration is 6
The total number of vibrations considered is 30


--------------------------
THERMOCHEMISTRY AT 298.15K
--------------------------

Temperature         ...   298.15 K
Pressure            ...     1.00 atm
Total Mass          ...    64.08 AMU
Quasi RRHO          ...     True
Cut-Off Frequency   ...     1.00 cm^-1

Throughout the following assumptions are being made:
  (1) The electronic state is orbitally nondegenerate
  (2) There are no thermally accessible electronically excited states
  (3) Hindered rotations indicated by low frequency modes are not
      treated as such but are treated as vibrations and this may
      cause some error
  (4) All equations used are the standard statistical mechanics
      equations for an ideal gas
  (5) All vibrations are strictly harmonic

freq.      50.66  E(vib)   ...       0.52 
freq.      86.20  E(vib)   ...       0.48 
freq.      94.09  E(vib)   ...       0.47 
freq.     106.21  E(vib)   ...       0.45 
freq.     136.60  E(vib)   ...       0.42 
freq.     229.24  E(vib)   ...       0.32 
freq.     316.61  E(vib)   ...       0.25 
freq.     732.47  E(vib)   ...       0.06 
freq.    1070.85  E(vib)   ...       0.02 
freq.    1082.83  E(vib)   ...       0.02 
freq.    1109.70  E(vib)   ...       0.02 
freq.    1122.83  E(vib)   ...       0.01 
freq.    1173.42  E(vib)   ...       0.01 
freq.    1177.01  E(vib)   ...       0.01 
freq.    1348.16  E(vib)   ...       0.01 
freq.    1423.63  E(vib)   ...       0.00 
freq.    1461.48  E(vib)   ...       0.00 
freq.    1465.97  E(vib)   ...       0.00 
freq.    1474.95  E(vib)   ...       0.00 
freq.    1478.51  E(vib)   ...       0.00 
freq.    1488.28  E(vib)   ...       0.00 
freq.    1498.73  E(vib)   ...       0.00 
freq.    2948.45  E(vib)   ...       0.00 
freq.    2990.27  E(vib)   ...       0.00 
freq.    2994.07  E(vib)   ...       0.00 
freq.    3055.84  E(vib)   ...       0.00 
freq.    3082.19  E(vib)   ...       0.00 
freq.    3137.10  E(vib)   ...       0.00 
freq.    3683.70  E(vib)   ...       0.00 
freq.    3831.26  E(vib)   ...       0.00 

------------
INNER ENERGY
------------

The inner energy is: U= E(el) + E(ZPE) + E(vib) + E(rot) + E(trans)
    E(el)   - is the total energy from the electronic structure calculation
              = E(kin-el) + E(nuc-el) + E(el-el) + E(nuc-nuc)
    E(ZPE)  - the the zero temperature vibrational energy from the frequency calculation
    E(vib)  - the the finite temperature correction to E(ZPE) due to population
              of excited vibrational states
    E(rot)  - is the rotational thermal energy
    E(trans)- is the translational thermal energy

Summary of contributions to the inner energy U:
Electronic energy                ...   -231.14496276 Eh
Zero point energy                ...      0.10445697 Eh      65.55 kcal/mol
Thermal vibrational correction   ...      0.00493391 Eh       3.10 kcal/mol
Thermal rotational correction    ...      0.00141627 Eh       0.89 kcal/mol
Thermal translational correction ...      0.00141627 Eh       0.89 kcal/mol
-----------------------------------------------------------------------
Total thermal energy                   -231.03273933 Eh


Summary of corrections to the electronic energy:
(perhaps to be used in another calculation)
Total thermal correction                  0.00776645 Eh       4.87 kcal/mol
Non-thermal (ZPE) correction              0.10445697 Eh      65.55 kcal/mol
-----------------------------------------------------------------------
Total correction                          0.11222343 Eh      70.42 kcal/mol


--------
ENTHALPY
--------

The enthalpy is H = U + kB*T
                kB is Boltzmann's constant
Total thermal energy              ...   -231.03273933 Eh 
Thermal Enthalpy correction       ...      0.00094421 Eh       0.59 kcal/mol
-----------------------------------------------------------------------
Total Enthalpy                    ...   -231.03179513 Eh


Note: Only C1 symmetry has been detected, increase convergence thresholds 
      if your molecule has a higher symmetry. Symmetry factor of 1.0 is   
      used for the rotational entropy correction. 
 

Note: Rotational entropy computed according to Herzberg 
Infrared and Raman Spectra, Chapter V,1, Van Nostrand Reinhold, 1945 
Point Group:  C1, Symmetry Number:   1  
Rotational constants in cm-1:     0.519720     0.086199     0.083515 

Vibrational entropy computed according to the QRRHO of S. Grimme
Chem.Eur.J. 2012 18 9955 using a reference frequency of 100.0 cm-1


-------
ENTROPY
-------

The entropy contributions are T*S = T*(S(el)+S(vib)+S(rot)+S(trans))
     S(el)   - electronic entropy
     S(vib)  - vibrational entropy
     S(rot)  - rotational entropy
     S(trans)- translational entropy
The entropies will be listed as multiplied by the temperature to get
units of energy

Electronic entropy                ...      0.00000000 Eh      0.00 kcal/mol
Vibrational entropy               ...      0.00946006 Eh      5.94 kcal/mol
Rotational entropy                ...      0.01214899 Eh      7.62 kcal/mol
Translational entropy             ...      0.01824104 Eh     11.45 kcal/mol
-----------------------------------------------------------------------
Final entropy term                ...      0.03985009 Eh     25.01 kcal/mol

In case the symmetry of your molecule has not been determined correctly
or in case you have a reason to use a different symmetry number we print 
out the resulting rotational entropy values for sn=1,12:

 non-linear molecules -----------------------------------
|  sn= 1 | S(rot)=       0.01214899 Eh      7.62 kcal/mol|
|  sn= 2 | S(rot)=       0.01149453 Eh      7.21 kcal/mol|
|  sn= 3 | S(rot)=       0.01111170 Eh      6.97 kcal/mol|
|  sn= 4 | S(rot)=       0.01084008 Eh      6.80 kcal/mol|
|  sn= 5 | S(rot)=       0.01062939 Eh      6.67 kcal/mol|
|  sn= 6 | S(rot)=       0.01045724 Eh      6.56 kcal/mol|
|  sn= 7 | S(rot)=       0.01031170 Eh      6.47 kcal/mol|
|  sn= 8 | S(rot)=       0.01018562 Eh      6.39 kcal/mol|
|  sn= 9 | S(rot)=       0.01007441 Eh      6.32 kcal/mol|
|  sn=10 | S(rot)=       0.00997493 Eh      6.26 kcal/mol|
|  sn=11 | S(rot)=       0.00988494 Eh      6.20 kcal/mol|
|  sn=12 | S(rot)=       0.00980279 Eh      6.15 kcal/mol|
 linear molecules ---------------------------------------
|  Dinfh | S(rot)=       0.00766995 Eh      4.81 kcal/mol|
|  Cinfv | S(rot)=       0.00832441 Eh      5.22 kcal/mol|
 --------------------------------------------------------


-------------------
GIBBS FREE ENERGY
-------------------

The Gibbs free energy is G = H - T*S

Total enthalpy                    ...   -231.03179513 Eh 
Total entropy correction          ...     -0.03985009 Eh    -25.01 kcal/mol
-----------------------------------------------------------------------
Final Gibbs free energy         ...   -231.07164521 Eh

For completeness - the Gibbs free energy minus the electronic energy
G-E(el)                           ...      0.07331755 Eh     46.01 kcal/mol


Maximum memory used throughout the entire PROP-calculation: 24.4 MB
[1770538806.406480] [node068:2127683:0]     ucp_context.c:1234 UCX  WARN  transport 'ib' is not available, please use one or more of: mm, posix, self, shm, sm, sysv, tcp
[1770538806.423422] [node068:2127684:0]     ucp_context.c:1234 UCX  WARN  transport 'ib' is not available, please use one or more of: mm, posix, self, shm, sm, sysv, tcp
[1770538806.447036] [node068:2127686:0]     ucp_context.c:1234 UCX  WARN  transport 'ib' is not available, please use one or more of: mm, posix, self, shm, sm, sysv, tcp
[1770538806.473737] [node068:2127690:0]     ucp_context.c:1234 UCX  WARN  transport 'ib' is not available, please use one or more of: mm, posix, self, shm, sm, sysv, tcp

--------------------------------
SUGGESTED CITATIONS FOR THIS RUN
--------------------------------

Below you find a list of papers that are relevant to this ORCA run
We neither can nor want to force you to cite these papers, but we appreciate if you do
You receive ORCA, which is the product of decades of hard work by many enthusiastic individuals, for free
The only thing we kindly ask in return is that you cite our papers,
We deeply appreciate it, if you show your appreciation for ORCA by not just citing the generic ORCA reference.

Please note that relegating all ORCA citations to the supporting information does *not* help us.
SI sections are not indexed - citations you put there will not count into any citation statistics
But we need these citations in order to attract the funding resources that allow us to do what we are doing

Therefore, if you are a happy ORCA user, please consider citing a few of the papers listed below in the main body of your paper

In addition to the list printed below, the program has created the file MeOH_dimer.bibtex that contains the list in bibtex format
You can import this file easily into all common literature databanks and citation aid programs


List of essential papers. We consider these as the minimum necessary citations

  1. Neese, F.
     Software update: the ORCA program system, version 6.0
     WIRES Comput. Molec. Sci. 2025 15(1), e70019
     doi.org/10.1002/wcms.7019

List of papers to cite with high priority. The work reported in these papers was absolutely
necessary for this run to complete.
Our perspective: the developers of density functionals and basis sets usually get cited in chemistry papers
Good! But without the algorithms to do something with them, the functionals or basis sets would not do anything.
Hence, in our opinion, the algorithm design and method developments papers are equally worthy of getting cited

  1. Neese, F.
     An improvement of the resolution of the identity approximation for the formation of the Coulomb matrix
     J. Comp. Chem. 2003 24(14), 1740-1747
     doi.org/10.1002/jcc.10318
  2. Neese, F.; Wennmohs, F.; Hansen, A.; Becker, U.
     Efficient, approximate and parallel Hartree-Fock and hybrid DFT calculations. A 'chain-of-spheres' algorithm for the Hartree-Fock exchange
     Chem. Phys. 2009 356(1-3), 98-109
     doi.org/10.1016/j.chemphys.2008.10.036
  3. Bykov, D.; Petrenko, T.; Izsak, R.; Kossmann, S.; Becker, U.; Valeev, E.; Neese, F.
     Efficient implementation of the analytic second derivatives of Hartree-Fock and hybrid DFT energies: a detailed analysis of different approximations
     Molec. Phys. 2015 113 , 1961-1977
     doi.org/10.1080/00268976.2015.1025114
  4. Helmich-Paris, B.; de Souza, B.; Neese, F.; Izsák, R.
     An improved chain of spheres for exchange algorithm
     J. Chem. Phys. 2021 155(10), 104109
     doi.org/10.1063/5.0058766
  5. Neese, F.
     The SHARK Integral Generation and Digestion System
     J. Comp. Chem. 2022 44(3), 381
     doi.org/10.1002/jcc.26942

List of suggested additional citations. These are papers that are important in the 'surrounding' of 
of this run, or papers that preceded the highly important papers. If you like your results we are grateful for a citation.

  1. Izsak, R.; Neese, F.
     An overlap fitted chain of spheres exchange method
     J. Chem. Phys. 2011 135 , 144105
     doi.org/10.1063/1.3646921
  2. Izsak, R.; Hansen, A.; Neese, F.
     The resolution of identity and chain of spheres approximations for the LPNO-CCSD singles Fock term
     Molec. Phys. 2012 110 , 2413-2417
     doi.org/10.1080/00268976.2012.687466
  3. Neese, F.
     The ORCA program system
     WIRES Comput. Molec. Sci. 2012 2(1), 73-78
     doi.org/10.1002/wcms.81
  4. Izsak, R.; Neese, F.; Klopper, W.
     Robust fitting techniques in the chain of spheres approximation to the Fock exchange: The role of the complementary space
     J. Chem. Phys. 2013 139 , 
     doi.org/10.1063/1.4819264
  5. Neese, F.
     Software update: the ORCA program system, version 4.0
     WIRES Comput. Molec. Sci. 2018 8(1), 1-6
     doi.org/10.1002/wcms.1327
  6. Neese, F.; Wennmohs, F.; Becker, U.; Riplinger, C.
     The ORCA quantum chemistry program package
     J. Chem. Phys. 2020 152(22), 224108
     doi.org/10.1063/5.0004608
  7. Neese, F.
     Software update: The ORCA program system—Version 5.0
     WIRES Comput. Molec. Sci. 2022 12(1), e1606
     doi.org/10.1002/wcms.1606

List of optional additional citations

  1. Neese, F.
     Approximate second-order SCF convergence for spin unrestricted wavefunctions
     Chem. Phys. Lett. 2000 325(1-3), 93-98
     doi.org/10.1016/s0009-2614(00)00662-x

Timings for individual modules:

Sum of individual times          ...      446.993 sec (=   7.450 min)
Startup calculation              ...       72.199 sec (=   1.203 min)  16.2 %
SCF iterations                   ...      186.965 sec (=   3.116 min)  41.8 %
Property integrals               ...       63.342 sec (=   1.056 min)  14.2 %
SCF Response                     ...        3.812 sec (=   0.064 min)   0.9 %
Property calculations            ...       13.113 sec (=   0.219 min)   2.9 %
SCF Gradient evaluation          ...      107.440 sec (=   1.791 min)  24.0 %
Geometry relaxation              ...        0.122 sec (=   0.002 min)   0.0 %
                             ****ORCA TERMINATED NORMALLY****
TOTAL RUN TIME: 0 days 0 hours 8 minutes 25 seconds 49 msec
