
                                 *****************
                                 * O   R   C   A *
                                 *****************

                                            #,                                       
                                            ###                                      
                                            ####                                     
                                            #####                                    
                                            ######                                   
                                           ########,                                 
                                     ,,################,,,,,                         
                               ,,#################################,,                 
                          ,,##########################################,,             
                       ,#########################################, ''#####,          
                    ,#############################################,,   '####,        
                  ,##################################################,,,,####,       
                ,###########''''           ''''###############################       
              ,#####''   ,,,,##########,,,,          '''####'''          '####       
            ,##' ,,,,###########################,,,                        '##       
           ' ,,###''''                  '''############,,,                           
         ,,##''                                '''############,,,,        ,,,,,,###''
      ,#''                                            '''#######################'''  
     '                                                          ''''####''''         
             ,#######,   #######,   ,#######,      ##                                
            ,#'     '#,  ##    ##  ,#'     '#,    #''#        ,####,    ,#,          
            ##       ##  ##   ,#'  ##            #'  '#       #'       ,# #          
            ##       ##  #######   ##           ,######,      #####,      #          
            '#,     ,#'  ##    ##  '#,     ,#' ,#      #,     #,   #      #          
             '#######'   ##     ##  '#######'  #'      '#     '####' #    #          



                #########################################################
                #                        -***-                          #
                #          Department of theory and spectroscopy        #
                #                                                       #
                #                      Frank Neese                      #
                #                                                       #
                #     Directorship, Architecture, Infrastructure        #
                #                    SHARK, DRIVERS                     #
                #        Core code/Algorithms in most modules           #
                #                                                       #
                #        Max Planck Institute fuer Kohlenforschung      #
                #                Kaiser Wilhelm Platz 1                 #
                #                 D-45470 Muelheim/Ruhr                 #
                #                      Germany                          #
                #                                                       #
                #                  All rights reserved                  #
                #                        -***-                          #
                #########################################################


                         Program Version 6.1.0  -  RELEASE   -
                                (GIT: $679e74b$)
                          ($2025-06-10 18:02:51 +0200$)


 With contributions from (in alphabetic order):
[Max-Planck-Institut fuer Kohlenforschung]                               
  Daniel Aravena         : Magnetic Suceptibility                        
  Michael Atanasov       : Ab Initio Ligand Field Theory (pilot matlab implementation)
  Alexander A. Auer      : GIAO ZORA, VPT2 properties, NMR spectrum      
  Ute Becker             : All parallelization in ORCA, NUMFREQ, NUMCALC 
  Giovanni Bistoni       : ED, misc. LED, open-shell LED, HFLD           
  Dmytro Bykov           : pre 5.0 version of the SCF Hessian            
  Marcos Casanova-Páez   : Triplet and SCS-CIS(D). UHF-(DLPNO)-IP/EA/STEOM-CCSD. UHF-CVS-IP/STEOM-CCSD   
  Vijay G. Chilkuri      : MRCI spin determinant printing, contributions to CSF-ICE 
  Pauline Colinet        : FMM embedding                                 
  Dipayan Datta          : RHF DLPNO-CCSD density                        
  Achintya Kumar Dutta   : EOM-CC, STEOM-CC                              
  Nicolas Foglia         : Exact transition moments, OPA infrastructure, MCD improvements    
  Dmitry Ganyushin       : Spin-Orbit,Spin-Spin,Magnetic field MRCI      
  Miquel Garcia-Rates    : C-PCM and meta-GGA Hessian, CCSD/C-PCM, Gaussian charge scheme 
  Tiago L. C. Gouveia    : GS-ROHF, GS-ROCIS                             
  Yang Guo               : DLPNO-NEVPT2, F12-NEVPT2, CIM, IAO-localization        
  Andreas Hansen         : Spin unrestricted coupled pair/coupled cluster methods 
  Ingolf Harden          : AUTO-CI MPn and infrastructure                
  Benjamin Helmich-Paris : MC-RPA, TRAH-(SCF,CASSCF), AVAS, COSX integrals, SCF dyn. polar., MC-PDFT, srDFT 
  Lee Huntington         : MR-EOM, pCC                                   
  Robert Izsak           : Overlap fitted RIJCOSX, COSX-SCS-MP3, EOM     
  Riya Kayal             : Wick's Theorem for AUTO-CI, AUTO-CI UHF-CCSDT 
  Emily Kempfer          : AUTO-CI RHF CISDT and CCSDT, approximate NEVPT4
  Christian Kollmar      : KDIIS, OOCD, Brueckner-CCSD(T), CCSD density, CASPT2, CASPT2-K, improved NEVPT2 
  Axel Koslowski         : Symmetry handling                             
  Simone Kossmann        : meta-GGA functionals, TD-DFT gradient, OOMP2, (MP2 Hessian; deprecated post 5.0) 
  Lucas Lang             : DCDCAS, Hyperfine gauge corrections, ICE-SOC+SSC
  Marvin Lechner         : AUTO-CI (C++ implementation), FIC-MRCC        
  Spencer Leger          : CASSCF response                               
  Dagmar Lenk            : GEPOL surface, SMD, ORCA-2-JSON               
  Dimitrios Liakos       : Extrapolation schemes; Compound Job, Property file
  Dimitrios Manganas     : Further ROCIS development; embedding schemes. LFT, Crystal Embedding 
  Dimitrios Pantazis     : SARC Basis sets                               
  Anastasios Papadopoulos: AUTO-CI, single reference methods and gradients 
  Taras Petrenko         : pre 6.0 DFT Hessian and TD-DFT gradient,  ECA, NRVS 
  Petra Pikulova         : Analytic Raman intensities                    
  Peter Pinski           : DLPNO-MP2, DLPNO-MP2 Gradient                 
  Shashank Vittal Rao    : ES-AILFT, MagRelax                            
  Christoph Reimann      : Effective Core Potentials                     
  Marius Retegan         : Local ZFS, SOC                                
  Christoph Riplinger    : Optimizer, TS searches, QM/MM, DLPNO-CCSD(T), (RO)-DLPNO pert. Triples 
  Michael Roemelt        : Original ROCIS implementation, recursive CI coupling coefficients
  Masaaki Saitow         : Open-shell DLPNO-CCSD energy and density      
  Barbara Sandhoefer     : DKH picture change effects                    
  Yorick L. A. Schmerwitz: GMF and freeze-and-release deltaSCF, NEB S-IDPP initial path                    
  Kantharuban Sivalingam : CASSCF convergence/infrastructure, NEVPT2, NEVPT3, NEVPT4(SD), FIC-MRCI and CEPA variants
  Bernardo de Souza      : ESD, SOC TD-DFT                               
  Georgi L. Stoychev     : AutoAux, RI-MP2 NMR, DLPNO-MP2 response, X2C  
  Van Anh Tran           : RI-MP2 g-tensors                              
  Willem Van den Heuvel  : Paramagnetic NMR                              
  Zikuan Wang            : NOTCH, Electric field optimization            
  Frank Wennmohs         : Technical directorship and infrastructure     
  Hang Xu                : AUTO-CI-Response properties                   
                                                                         
[FACCTs GmbH]                                                            
  Markus Bursch, Nicolas Foglia, Miquel Garcia-Rates, Ingolf Harden, Hagen Neugebauer, Anastasios Papadopoulos, 
  Christoph Riplinger, Bernardo de Souza, Georgi L. Stoychev                                                    
                                                                 
  APM, various basis sets, CI-OPT, improved COSX, DLPNO-Multilevel,           
  DOCKER, DRACO, updates on ESD, Fragmentator, GOAT, IRC, LR-CPCM, L-BFGS, MBIS, meta-GGA TD-DFT gradient, ML-optimized integration grids, 
  MM, NACMEs, nearIR, NEB, NEB-TS, NL-DFT gradient (VV10), 2- and 3-layer-ONIOM, interface openCOSMO-RS, QMMM,   
  Crystal-QMMM, RESP, rigid body optimization, SF, symmetry and pop. for TD-DFT, various functionals, SOLVATOR                                   
                                                                         
[Other institutions]                                                     
  V. Asgeirsson          : NEB                                           
  Christoph Bannwarth    : sTDA-DFT, sTD-DFT, PBEh-3c, B97-3c, D3        
  Giovanni Bistoni       : ETS/NOCV, ADLD/ADEX, COVALED                  
  Martin Brehm           : Molecular dynamics                            
  Ronald Cardenas        : ETS/NOCV                                      
  Martina Colucci        : COVALED                                       
  Sebastian Ehlert       : rSCAN, r2SCAN, r2SCAN-3c, D4, dhf basis sets  
  Marvin Friede          : D4 for Fr, Ra, Ac-Lr                          
  Lars Goerigk           : TD-DFT with DH, B97 family of functionals     
  Stefan Grimme          : VdW corrections, initial TS optimization, DFT functionals, gCP, sTDA/sTD-DF 
  Waldemar Hujo          : DFT-NL                                        
  H. Jonsson             : NEB                                           
  Holger Kruse           : gCP                                           
  Marcel Mueller         : wB97X-3c, vDZP basis set                      
  Hagen Neugebauer       : wr2SCAN, Native XTB                           
  Gianluca Regni         : ADLD/ADEX                                     
  Tobias Risthaus        : pre 6.0 range-separated hybrid DFT and stability analysis
  Lukas Wittmann         : regularized MP2, r2SCAN double-hybrids, wr2SCAN        
                                                                         
We gratefully acknowledge several colleagues who have allowed us to      
interface, adapt or use parts of their codes:                            
  Ed Valeev, F. Pavosevic, A. Kumar             : LibInt (2-el integral package), F12 methods 
  Garnet Chan, S. Sharma, J. Yang, R. Olivares  : DMRG                   
  Ulf Ekstrom                                   : XCFun DFT Library      
  Mihaly Kallay                                 : mrcc  (arbitrary order and MRCC methods)
  Frank Weinhold                                : gennbo (NPA and NBO analysis)           
  Simon Mueller                                 : openCOSMO-RS                            
  Christopher J. Cramer and Donald G. Truhlar   : smd solvation model                     
  S Lehtola, MJT Oliveira, MAL Marques          : LibXC Library                           
  Liviu Ungur et al                             : ANISO software                          


 Your calculation uses the libint2 library for the computation of 2-el integrals
 For citations please refer to: http://libint.valeyev.net

 Your ORCA version has been built with support for libXC version: 7.0.0
 For citations please refer to: https://libxc.gitlab.io

 This ORCA versions uses:
   CBLAS   interface :  Fast vector & matrix operations
   LAPACKE interface :  Fast linear algebra routines
   SCALAPACK package :  Parallel linear algebra routines
   Shared memory     :  Shared parallel matrices
   BLAS/LAPACK       :  OpenBLAS 0.3.29  USE64BITINT DYNAMIC_ARCH NO_AFFINITY Zen SINGLE_THREADED
        Core in use  :  Zen
   Copyright (c) 2011-2014, The OpenBLAS Project


  ***********************************
  * Starting time: Sun Feb  8 09:12:45 2026
  * Host name:     node068.cluster
  * Process ID:    2121175
  * Working dir.:  /scratch/56927683
  ***********************************

NOTE: MaxCore=1500 MB was set to SCF,MP2,MDCI,CIPSI,MRCI,RASCI and CIS
      => If you want to overwrite this, your respective input block should be placed after the MaxCore statement
Warning: RI is on but no J-basis has been assigned. Assigning Def2/J (nothing to worry about!)
================================================================================

----- Orbital basis set information -----
Your calculation utilizes the basis: def2-SVP
   F. Weigend and R. Ahlrichs, Phys. Chem. Chem. Phys. 7, 3297 (2005).

----- AuxJ basis set information -----
Your calculation utilizes the auxiliary basis: def2/J
   H-Rn: F. Weigend, Phys. Chem. Chem. Phys. 8, 1057 (2006).
   Fr-Lr: K. Eichkorn, F. Weigend, O. Treutler, R. Ahlrichs; Theor. Chem. Acc. 97, 119 (1997).

================================================================================
                                        WARNINGS
                       Please study these warnings very carefully!
================================================================================


WARNING: Geometry Optimization
  ===> : Switching off AutoStart
         For restart on a previous wavefunction, please use MOREAD

================================================================================
                                       INPUT FILE
================================================================================
NAME = h2o_dimer.inp
|  1> ! b3lyp opt freq
|  2> 
|  3> 
|  4>  %pal 
|  5>  nprocs 4 
|  6>  end 
|  7>  
|  8>  %maxcore 1500 
|  9>  
| 10>  * XYZ 0 1
| 11> O     -1.8457981919    0.4790582317    0.8395743450
| 12> H     -1.5381855722    1.2077746659    1.4056054222
| 13> H     -2.8003545720    0.6510519424    0.7665294408
| 14> O     -0.3070224838   -0.9818959158   -0.9090559856
| 15> H     -0.8610573794   -0.3796574298   -0.3644525807
| 16> H     -0.2212636762   -1.7456369032   -0.3195099570
| 17> *
| 18> 
| 19>                          ****END OF INPUT****
================================================================================

                       *****************************
                       * Geometry Optimization Run *
                       *****************************

Geometry optimization settings:
Update method            Update   .... BFGS
Choice of coordinates    CoordSys .... (2022) Redundant Internals
Initial Hessian          InHess   .... Almloef's Model
Max. no of cycles        MaxIter  .... 50

Convergence Tolerances:
Energy Change            TolE     ....  5.0000e-06 Eh
Max. Gradient            TolMAXG  ....  3.0000e-04 Eh/bohr
RMS Gradient             TolRMSG  ....  1.0000e-04 Eh/bohr
Max. Displacement        TolMAXD  ....  4.0000e-03 bohr
RMS Displacement         TolRMSD  ....  2.0000e-03 bohr
Strict Convergence                .... False

------------------------------------------------------------------------------
                        ORCA OPTIMIZATION COORDINATE SETUP
------------------------------------------------------------------------------

The optimization will be done in redundant internal coordinates (2022)
Making redundant internal coordinates   ...  (2022 redundants) done
Evaluating the initial hessian          ...  (Almloef) done
Evaluating the coordinates              ...  done
Calculating the B-matrix                .... done
Calculating the G-matrix                .... done
The number of degrees of freedom        ....   13

    -----------------------------------------------------------------
                    Redundant Internal Coordinates


    -----------------------------------------------------------------
         Definition                    Initial Value    Approx d2E/dq
    -----------------------------------------------------------------
      1. B(H   1,O   0)                  0.9726         0.496349   
      2. B(H   2,O   0)                  0.9727         0.496302   
      3. B(H   4,O   3)                  0.9830         0.477873   
      4. B(H   4,O   0)                  1.7767         0.025877   
      5. B(H   5,O   3)                  0.9686         0.503754   
      6. A(H   1,O   0,H   2)          102.8028         0.316983   
      7. A(H   1,O   0,H   4)          125.5335         0.205829   
      8. A(H   2,O   0,H   4)          125.3444         0.205826   
      9. A(H   4,O   3,H   5)          101.2898         0.315797   
     10. A(O   0,H   4,O   3)          169.7200         0.204830   
     11. D(O   3,H   4,O   0,H   2)   -110.3655         0.010000   
     12. D(O   0,H   4,O   3,H   5)      1.6753         0.245214   
     13. D(O   3,H   4,O   0,H   1)    102.4595         0.010000   
    -----------------------------------------------------------------

Number of atoms                         .... 6
Number of degrees of freedom            .... 13


         *************************************************************
         *                GEOMETRY OPTIMIZATION CYCLE   1            *
         *************************************************************
---------------------------------
CARTESIAN COORDINATES (ANGSTROEM)
---------------------------------
  O     -1.845798    0.479058    0.839574
  H     -1.538186    1.207775    1.405605
  H     -2.800355    0.651052    0.766529
  O     -0.307022   -0.981896   -0.909056
  H     -0.861057   -0.379657   -0.364453
  H     -0.221264   -1.745637   -0.319510

----------------------------
CARTESIAN COORDINATES (A.U.)
----------------------------
  NO LB      ZA    FRAG     MASS         X           Y           Z
   0 O     8.0000    0    15.999   -3.488053    0.905289    1.586566
   1 H     1.0000    0     1.008   -2.906749    2.282363    2.656209
   2 H     1.0000    0     1.008   -5.291903    1.230310    1.448531
   3 O     8.0000    0    15.999   -0.580188   -1.855514   -1.717867
   4 H     1.0000    0     1.008   -1.627163   -0.717449   -0.688716
   5 H     1.0000    0     1.008   -0.418128   -3.298776   -0.603786

--------------------------------
INTERNAL COORDINATES (ANGSTROEM)
--------------------------------
 O      0   0   0     0.000000000000     0.00000000     0.00000000
 H      1   0   0     0.972648109867     0.00000000     0.00000000
 H      1   2   0     0.972674291497   102.80275039     0.00000000
 O      1   2   3     2.749531911804   126.24198297   157.46552804
 H      4   1   2     0.982974429063     6.62204491   279.86171951
 H      4   1   2     0.968617256069    94.67051011   101.51002929

---------------------------
INTERNAL COORDINATES (A.U.)
---------------------------
 O      0   0   0     0.000000000000     0.00000000     0.00000000
 H      1   0   0     1.838038552325     0.00000000     0.00000000
 H      1   2   0     1.838088028436   102.80275039     0.00000000
 O      1   2   3     5.195862309787   126.24198297   157.46552804
 H      4   1   2     1.857552467576     6.62204491   279.86171951
 H      4   1   2     1.830421342560    94.67051011   101.51002929

---------------------
BASIS SET INFORMATION
---------------------
There are 2 groups of distinct atoms

 Group   1 Type O   : 7s4p1d contracted to 3s2p1d pattern {511/31/1}
 Group   2 Type H   : 4s1p contracted to 2s1p pattern {31/1}

Atom   0O    basis set group =>   1
Atom   1H    basis set group =>   2
Atom   2H    basis set group =>   2
Atom   3O    basis set group =>   1
Atom   4H    basis set group =>   2
Atom   5H    basis set group =>   2
---------------------------------
AUXILIARY/J BASIS SET INFORMATION
---------------------------------
There are 2 groups of distinct atoms

 Group   1 Type O   : 12s5p4d2f1g contracted to 6s4p3d1f1g pattern {711111/2111/211/2/1}
 Group   2 Type H   : 5s2p1d contracted to 3s1p1d pattern {311/2/1}

Atom   0O    basis set group =>   1
Atom   1H    basis set group =>   2
Atom   2H    basis set group =>   2
Atom   3O    basis set group =>   1
Atom   4H    basis set group =>   2
Atom   5H    basis set group =>   2
[1770538365.775109] [node068:2121180:0]     ucp_context.c:1234 UCX  WARN  transport 'ib' is not available, please use one or more of: mm, posix, self, shm, sm, sysv, tcp
[1770538365.788326] [node068:2121181:0]     ucp_context.c:1234 UCX  WARN  transport 'ib' is not available, please use one or more of: mm, posix, self, shm, sm, sysv, tcp
[1770538365.818169] [node068:2121183:0]     ucp_context.c:1234 UCX  WARN  transport 'ib' is not available, please use one or more of: mm, posix, self, shm, sm, sysv, tcp
[1770538365.842643] [node068:2121187:0]     ucp_context.c:1234 UCX  WARN  transport 'ib' is not available, please use one or more of: mm, posix, self, shm, sm, sysv, tcp


           ************************************************************
           *        Program running with 4 parallel MPI-processes     *
           *              working on a common directory               *
           ************************************************************
------------------------------------------------------------------------------
                             ORCA STARTUP CALCULATIONS
                           -- RI-GTO INTEGRALS CHOSEN --
------------------------------------------------------------------------------
------------------------------------------------------------------------------
                   ___                                                        
                  /   \      - P O W E R E D   B Y -                         
                 /     \                                                     
                 |  |  |   _    _      __       _____    __    __             
                 |  |  |  | |  | |    /  \     |  _  \  |  |  /  |          
                  \  \/   | |  | |   /    \    | | | |  |  | /  /          
                 / \  \   | |__| |  /  /\  \   | |_| |  |  |/  /          
                |  |  |   |  __  | /  /__\  \  |    /   |      \           
                |  |  |   | |  | | |   __   |  |    \   |  |\   \          
                \     /   | |  | | |  |  |  |  | |\  \  |  | \   \       
                 \___/    |_|  |_| |__|  |__|  |_| \__\ |__|  \__/        
                                                                              
                      - O R C A' S   B I G   F R I E N D -                    
                                      &                                       
                       - I N T E G R A L  F E E D E R -                       
                                                                              
 v1 FN, 2020, v2 2021, v3 2022-2024                                           
------------------------------------------------------------------------------


----------------------
SHARK INTEGRAL PACKAGE
----------------------

Number of atoms                             ...      6
Number of basis functions                   ...     48
Number of shells                            ...     24
Maximum angular momentum                    ...      2
Integral batch strategy                     ... SHARK/LIBINT Hybrid
RI-J (if used) integral strategy            ... SPLIT-RIJ (Revised 2003 algorithm where possible)
Printlevel                                  ...      1
Contraction scheme used                     ... SEGMENTED contraction
Prescreening option                         ... SCHWARTZ
   Thresh                                   ... 2.500e-11
   Tcut                                     ... 2.500e-12
   Tpresel                                  ... 2.500e-12 
Coulomb Range Separation                    ... NOT USED
Exchange Range Separation                   ... NOT USED
Multipole approximations                    ... NOT USED
Finite Nucleus Model                        ... NOT USED
CABS basis                                  ... NOT available
Auxiliary Coulomb fitting basis             ... AVAILABLE
   # of basis functions in Aux-J            ...    142
   # of shells in Aux-J                     ...     50
   Maximum angular momentum in Aux-J        ...      4
Auxiliary J/K fitting basis                 ... NOT available
Auxiliary Correlation fitting basis         ... NOT available
Auxiliary 'external' fitting basis          ... NOT available

Checking pre-screening integrals            ... done (  0.0 sec) Dimension = 24
   => SHARK Basis and OBASIS are compatible. Storing Pre-screening
Shell pair information
Shell pair cut-off parameter TPreSel        ...   2.5e-12
Total number of shell pairs                 ...       300
Shell pairs after pre-screening             ...       297
Total number of primitive shell pairs       ...      1028
Primitive shell pairs kept                  ...       868
          la=0 lb=0:    104 shell pairs
          la=1 lb=0:    110 shell pairs
          la=1 lb=1:     36 shell pairs
          la=2 lb=0:     28 shell pairs
          la=2 lb=1:     16 shell pairs
          la=2 lb=2:      3 shell pairs

Checking whether 4 symmetric matrices of dimension 48 fit in memory
:Max Core in MB      =   1500.00
 MB in use           =      3.56
 MB left             =   1496.44
 MB needed           =      0.04
 Data fit in memory  = YES
Calculating RI/J V-Matrix + Cholesky decomp.... done (  0.0 sec)
Calculating Nuclear repulsion               ... done (  0.0 sec) ENN=     37.391326210029 Eh

Diagonalization of the overlap matrix:
Smallest eigenvalue                        ... 2.975e-02
Time for diagonalization                   ...    0.000 sec
Threshold for overlap eigenvalues          ... 1.000e-07
Number of eigenvalues below threshold      ... 0
Time for construction of square roots      ...    0.000 sec
Total time needed                          ...    0.001 sec

-------------------
DFT GRID GENERATION
-------------------

General Integration Accuracy     IntAcc      ... 4.388
Radial Grid Type                 RadialGrid  ... OptM3 with GC (2021)
Angular Grid (max. ang.)         AngularGrid ... 4 (Lebedev-302)
Angular grid pruning method      GridPruning ... 4 (adaptive)
Weight generation scheme         WeightScheme... mBecke (2022)
Basis function cutoff            BFCut       ... 1.0000e-11
Integration weight cutoff        WCut        ... 1.0000e-14
Partially contracted basis set               ... off
Rotationally invariant grid construction     ... off
Angular grids for H and He will be reduced by one unit

Total number of grid points                  ...    25441
Total number of batches                      ...      399
Average number of points per batch           ...       63
Average number of grid points per atom       ...     4240

--------------------
COSX GRID GENERATION
--------------------

GRIDX 1
-------
General Integration Accuracy     IntAcc      ... 3.816
Radial Grid Type                 RadialGrid  ... OptM3 with GC (2021)
Angular Grid (max. ang.)         AngularGrid ... 1 (Lebedev-50)
Angular grid pruning method      GridPruning ... 4 (adaptive)
Weight generation scheme         WeightScheme... mBecke (2022)
Basis function cutoff            BFCut       ... 1.0000e-11
Integration weight cutoff        WCut        ... 1.0000e-14
Partially contracted basis set               ... on
Rotationally invariant grid construction     ... off
Angular grids for H and He will be reduced by one unit

Total number of grid points                  ...     3300
Total number of batches                      ...       28
Average number of points per batch           ...      117
Average number of grid points per atom       ...      550
UseSFitting                                  ... on

GRIDX 2
-------
General Integration Accuracy     IntAcc      ... 4.020
Radial Grid Type                 RadialGrid  ... OptM3 with GC (2021)
Angular Grid (max. ang.)         AngularGrid ... 2 (Lebedev-110)
Angular grid pruning method      GridPruning ... 4 (adaptive)
Weight generation scheme         WeightScheme... mBecke (2022)
Basis function cutoff            BFCut       ... 1.0000e-11
Integration weight cutoff        WCut        ... 1.0000e-14
Partially contracted basis set               ... on
Rotationally invariant grid construction     ... off
Angular grids for H and He will be reduced by one unit

Total number of grid points                  ...     6972
Total number of batches                      ...       57
Average number of points per batch           ...      122
Average number of grid points per atom       ...     1162
UseSFitting                                  ... on

GRIDX 3
-------
General Integration Accuracy     IntAcc      ... 4.338
Radial Grid Type                 RadialGrid  ... OptM3 with GC (2021)
Angular Grid (max. ang.)         AngularGrid ... 3 (Lebedev-194)
Angular grid pruning method      GridPruning ... 4 (adaptive)
Weight generation scheme         WeightScheme... mBecke (2022)
Basis function cutoff            BFCut       ... 1.0000e-11
Integration weight cutoff        WCut        ... 1.0000e-14
Partially contracted basis set               ... on
Rotationally invariant grid construction     ... off
Angular grids for H and He will be reduced by one unit

Total number of grid points                  ...    15366
Total number of batches                      ...      124
Average number of points per batch           ...      123
Average number of grid points per atom       ...     2561
UseSFitting                                  ... on
Grids setup in   0.1 sec
Initializing property integral containers    ... done (  0.0 sec)

SHARK setup successfully completed in   0.2 seconds

Maximum memory used throughout the entire STARTUP-calculation: 9.0 MB
[1770538367.424515] [node068:2121220:0]     ucp_context.c:1234 UCX  WARN  transport 'ib' is not available, please use one or more of: mm, posix, self, shm, sm, sysv, tcp
[1770538367.434743] [node068:2121221:0]     ucp_context.c:1234 UCX  WARN  transport 'ib' is not available, please use one or more of: mm, posix, self, shm, sm, sysv, tcp
[1770538367.462897] [node068:2121223:0]     ucp_context.c:1234 UCX  WARN  transport 'ib' is not available, please use one or more of: mm, posix, self, shm, sm, sysv, tcp
[1770538367.489469] [node068:2121227:0]     ucp_context.c:1234 UCX  WARN  transport 'ib' is not available, please use one or more of: mm, posix, self, shm, sm, sysv, tcp


           ************************************************************
           *        Program running with 4 parallel MPI-processes     *
           *              working on a common directory               *
           ************************************************************
-------------------------------------------------------------------------------
                                 ORCA GUESS
                   Start orbitals & Density for SCF / CASSCF
-------------------------------------------------------------------------------

------------
SCF SETTINGS
------------
Hamiltonian:
 Density Functional     Method          .... DFT(GTOs)
 Exchange Functional    Exchange        .... B88
   X-Alpha parameter    XAlpha          ....  0.666667
   Becke's b parameter  XBeta           ....  0.004200
 Correlation Functional Correlation     .... LYP
 LDA part of GGA corr.  LDAOpt          .... VWN-5
 Gradients option       PostSCFGGA      .... off
 Hybrid DFT is turned on
   Fraction HF Exchange ScalHFX         ....  0.200000
   Scaling of DF-GGA-X  ScalDFX         ....  0.720000
   Scaling of DF-GGA-C  ScalDFC         ....  0.810000
   Scaling of DF-LDA-C  ScalLDAC        ....  1.000000
   Perturbative correction              ....  0.000000
   NL short-range parameter             ....  4.800000
 RI-approximation to the Coulomb term is turned on
   Number of AuxJ basis functions       .... 142
   RIJ-COSX (HFX calculated with COS-X)).... on


General Settings:
 Integral files         IntName         .... h2o_dimer
 Hartree-Fock type      HFTyp           .... RHF
 Total Charge           Charge          ....    0
 Multiplicity           Mult            ....    1
 Number of Electrons    NEL             ....   20
 Basis Dimension        Dim             ....   48
 Nuclear Repulsion      ENuc            ....     37.3913262100 Eh

Convergence Acceleration:
 AO-DIIS                CNVDIIS         .... on
   Start iteration      DIISMaxIt       ....    12
   Startup error        DIISStart       ....  0.200000
   # of expansion vecs  DIISMaxEq       ....     5
   Bias factor          DIISBfac        ....   1.050
   Max. coefficient     DIISMaxC        ....  10.000
 MO-DIIS                CNVKDIIS        .... off
 Trust-Rad. Augm. Hess. CNVTRAH         .... auto
   Auto Start mean grad. ratio tolernc. ....  1.125000
   Auto Start start iteration           ....    50
   Auto Start num. interpolation iter.  ....    10
   Max. Number of Micro iterations      ....    24
   Max. Number of Macro iterations      .... Maxiter - #DIIS iter
   Number of Davidson start vectors     ....     2
   Converg. threshold    (grad. norm)   ....   1.000e-05
   Grad. Scal. Fac. for Micro threshold ....   0.100
   Minimum threshold for Micro iter.    ....   1.000e-02
   NR start threshold (gradient norm)   ....   1.000e-04
   Initial trust radius                 ....   0.400
   Minimum AH scaling param. (alpha)    ....   1.000
   Maximum AH scaling param. (alpha)    .... 1000.000
   Quad. conv. algorithm                .... NR
   White noise on init. David. guess    .... on
   Maximum white noise                  ....   0.010
   Pseudo random numbers                .... off
   Inactive MOs                         .... canonical
   Orbital update algorithm             .... Taylor
   Preconditioner                       .... Diag
   Full preconditioner red. dimension   ....   250
 SOSCF                 CNVSOSCF           .... on
   Start iteration     SOSCFMaxIt         ....   150
   Startup grad/error  SOSCFStart         ....  0.003300
   Hessian update      SOSCFHessUp        .... L-BFGS
   Autom. constraints  SOSCFAutoConstrain .... off
 Level Shifting         CNVShift        .... on
   Level shift para.    LevelShift      ....    0.2500
   Turn off err/grad.   ShiftErr        ....    0.0010
 Zerner damping         CNVZerner       .... off
 Static damping         CNVDamp         .... on
   Fraction old density DampFac         ....    0.7000
   Max. Damping (<1)    DampMax         ....    0.9800
   Min. Damping (>=0)   DampMin         ....    0.0000
   Turn off err/grad.   DampErr         ....    0.1000

SCF Procedure:
 Maximum # iterations   MaxIter         ....   125
 SCF integral mode      SCFMode         .... Direct
   Integral package                     .... SHARK and LIBINT hybrid scheme
 Reset frequency        DirectResetFreq ....    20
 Integral Threshold     Thresh          ....  2.500e-11 Eh
 Primitive CutOff       TCut            ....  2.500e-12 Eh

Convergence Tolerance:
 Convergence Check Mode ConvCheckMode   .... Total+1el-Energy
 Convergence forced     ConvForced      .... 0
 Energy Change          TolE            ....  1.000e-08 Eh
 1-El. energy change                    ....  1.000e-05 Eh
 Orbital Gradient       TolG            ....  1.000e-05
 Orbital Rotation angle TolX            ....  1.000e-05
 DIIS Error             TolErr          ....  5.000e-07

------------------------------
INITIAL GUESS: MODEL POTENTIAL
------------------------------
Loading Hartree-Fock densities                     ... done
Calculating cut-offs                               ... done
Initializing the effective Hamiltonian             ... done
Setting up the integral package (SHARK)            ... done
Starting the Coulomb interaction                   ... done (   0.0 sec)
Making the grid                                    ... done (   0.0 sec)
Mapping shells                                     ... done
Starting the XC term evaluation                    ... done (   0.0 sec)
  promolecular density results
     # of electrons  =     19.998160347
     EX              =    -17.564949867
     EC              =     -0.675542617
     EX+EC           =    -18.240492484
Transforming the Hamiltonian                       ... done (   0.0 sec)
Diagonalizing the Hamiltonian                      ... done (   0.0 sec)
Back transforming the eigenvectors                 ... done (   0.0 sec)
Now organizing SCF variables                       ... done
                      ------------------
                      INITIAL GUESS DONE (   0.0 sec)
                      ------------------
             **** ENERGY FILE WAS UPDATED (h2o_dimer.en.tmp) ****
Finished Guess after   0.4 sec
Maximum memory used throughout the entire GUESS-calculation: 5.8 MB
[1770538368.957432] [node068:2121260:0]     ucp_context.c:1234 UCX  WARN  transport 'ib' is not available, please use one or more of: mm, posix, self, shm, sm, sysv, tcp
[1770538368.972534] [node068:2121261:0]     ucp_context.c:1234 UCX  WARN  transport 'ib' is not available, please use one or more of: mm, posix, self, shm, sm, sysv, tcp
[1770538368.998985] [node068:2121263:0]     ucp_context.c:1234 UCX  WARN  transport 'ib' is not available, please use one or more of: mm, posix, self, shm, sm, sysv, tcp
[1770538369.027246] [node068:2121267:0]     ucp_context.c:1234 UCX  WARN  transport 'ib' is not available, please use one or more of: mm, posix, self, shm, sm, sysv, tcp


           ************************************************************
           *        Program running with 4 parallel MPI-processes     *
           *              working on a common directory               *
           ************************************************************

-------------------------------------------------------------------------------------------
                                      ORCA LEAN-SCF
                              memory conserving SCF solver
-------------------------------------------------------------------------------------------

----------------------------------------D-I-I-S--------------------------------------------
Iteration    Energy (Eh)           Delta-E    RMSDP     MaxDP     DIISErr   Damp  Time(sec)
-------------------------------------------------------------------------------------------
               ***  Starting incremental Fock matrix formation  ***
    1    -152.4807292726049184     0.00e+00  1.84e-02  8.78e-02  3.08e-01  0.700   0.1
    2    -152.5655528370051854    -8.48e-02  1.05e-02  4.96e-02  1.32e-01  0.700   0.1
                               ***Turning on AO-DIIS***
    3    -152.5946192662126464    -2.91e-02  2.72e-03  1.26e-02  3.51e-02  0.700   0.1
    4    -152.6126922545356308    -1.81e-02  3.49e-03  1.67e-02  1.42e-02  0.000   0.1
    5    -152.6538944699508704    -4.12e-02  8.07e-04  3.20e-03  5.70e-03  0.000   0.1
                              *** Initializing SOSCF ***
---------------------------------------S-O-S-C-F--------------------------------------
Iteration    Energy (Eh)           Delta-E    RMSDP     MaxDP     MaxGrad    Time(sec)
--------------------------------------------------------------------------------------
    6    -152.6539754105059501    -8.09e-05  2.52e-04  1.09e-03  1.20e-03     0.1
               *** Restarting incremental Fock matrix formation ***
    7    -152.6538943905847816     8.10e-05  1.87e-04  9.31e-04  2.38e-04     0.1
    8    -152.6538945704810146    -1.80e-07  7.23e-05  4.07e-04  3.34e-04     0.1
    9    -152.6538952979681767    -7.27e-07  2.09e-05  8.19e-05  2.80e-05     0.1
   10    -152.6538953062399173    -8.27e-09  4.88e-06  2.44e-05  1.38e-05     0.1
                 **** Energy Check signals convergence ****

               *****************************************************
               *                     SUCCESS                       *
               *           SCF CONVERGED AFTER  10 CYCLES          *
               *****************************************************

Recomputing exchange energy using gridx3       ... done (    0.062 sec)
Old exchange energy                            :     -3.577809982 Eh
New exchange energy                            :     -3.577776877 Eh
Exchange energy change after final integration :      0.000033105 Eh
Total energy after final integration           :   -152.653862203 Eh
             **** ENERGY FILE WAS UPDATED (h2o_dimer.en.tmp) ****

----------------
TOTAL SCF ENERGY
----------------

Total Energy       :       -152.65386220266657 Eh           -4153.92277 eV

Components:
Nuclear Repulsion  :         37.39132621002872 Eh            1017.46971 eV
Electronic Energy  :       -190.04522151751831 Eh           -5171.39339 eV
One Electron Energy:       -284.32558596154223 Eh           -7736.89253 eV
Two Electron Energy:         94.28036444402392 Eh            2565.49914 eV

Virial components:
Potential Energy   :       -304.28264558616047 Eh           -8279.95173 eV
Kinetic Energy     :        151.62878338349390 Eh            4126.02896 eV
Virial Ratio       :          2.00676045006956

DFT components:
N(Alpha)           :       10.000000067082 electrons
N(Beta)            :       10.000000067082 electrons
N(Total)           :       20.000000134164 electrons
E(X)               :      -14.238549050388 Eh       
E(C)               :       -0.808595421087 Eh       
E(XC)              :      -15.047144471474 Eh       

---------------
SCF CONVERGENCE
---------------

  Last Energy change         ...    8.2717e-09  Tolerance :   1.0000e-08
  Last MAX-Density change    ...    2.4424e-05  Tolerance :   1.0000e-07
  Last RMS-Density change    ...    4.8757e-06  Tolerance :   5.0000e-09
  Last DIIS Error            ...    1.1972e-03  Tolerance :   5.0000e-07
  Last Orbital Gradient      ...    1.3760e-05  Tolerance :   1.0000e-05
  Last Orbital Rotation      ...    1.2400e-05  Tolerance :   1.0000e-05


----------------
ORBITAL ENERGIES
----------------

  NO   OCC          E(Eh)            E(eV) 
   0   2.0000     -19.159812      -521.3650 
   1   2.0000     -19.068545      -518.8815 
   2   2.0000      -1.015912       -27.6444 
   3   2.0000      -0.927963       -25.2512 
   4   2.0000      -0.544238       -14.8095 
   5   2.0000      -0.473506       -12.8848 
   6   2.0000      -0.408558       -11.1174 
   7   2.0000      -0.331837        -9.0297 
   8   2.0000      -0.315862        -8.5950 
   9   2.0000      -0.245574        -6.6824 
  10   0.0000       0.019960         0.5431 
  11   0.0000       0.101368         2.7584 
  12   0.0000       0.104700         2.8490 
  13   0.0000       0.244891         6.6638 
  14   0.0000       0.517964        14.0945 
  15   0.0000       0.558653        15.2017 
  16   0.0000       0.598964        16.2986 
  17   0.0000       0.656071        17.8526 
  18   0.0000       0.871404        23.7121 
  19   0.0000       0.928191        25.2574 
  20   0.0000       0.955897        26.0113 
*Only the first 10 virtual orbitals were printed.

                    ********************************
                    * MULLIKEN POPULATION ANALYSIS *
                    ********************************

-----------------------
MULLIKEN ATOMIC CHARGES
-----------------------
   0 O :   -0.265186
   1 H :    0.168461
   2 H :    0.168625
   3 O :   -0.338150
   4 H :    0.135316
   5 H :    0.130934
Sum of atomic charges:   -0.0000000

--------------------------------
MULLIKEN REDUCED ORBITAL CHARGES
--------------------------------
  0 O s       :     3.678998  s :     3.678998
      pz      :     1.715826  p :     4.576509
      px      :     1.269752
      py      :     1.590930
      dz2     :     0.001294  d :     0.009680
      dxz     :     0.000297
      dyz     :     0.002773
      dx2y2   :     0.003711
      dxy     :     0.001604

  1 H s       :     0.762327  s :     0.762327
      pz      :     0.023761  p :     0.069212
      px      :     0.018797
      py      :     0.026654

  2 H s       :     0.762167  s :     0.762167
      pz      :     0.017921  p :     0.069208
      px      :     0.034674
      py      :     0.016613

  3 O s       :     3.677919  s :     3.677919
      pz      :     1.579707  p :     4.649893
      px      :     1.772259
      py      :     1.297926
      dz2     :     0.001164  d :     0.010338
      dxz     :     0.002356
      dyz     :     0.005246
      dx2y2   :     0.000800
      dxy     :     0.000772

  4 H s       :     0.792555  s :     0.792555
      pz      :     0.022245  p :     0.072129
      px      :     0.024707
      py      :     0.025177

  5 H s       :     0.799307  s :     0.799307
      pz      :     0.022443  p :     0.069758
      px      :     0.018955
      py      :     0.028361



                     *******************************
                     * LOEWDIN POPULATION ANALYSIS *
                     *******************************

----------------------
LOEWDIN ATOMIC CHARGES
----------------------
   0 O :   -0.095297
   1 H :    0.091240
   2 H :    0.091333
   3 O :   -0.188354
   4 H :    0.038337
   5 H :    0.062741

-------------------------------
LOEWDIN REDUCED ORBITAL CHARGES
-------------------------------
  0 O s       :     3.423672  s :     3.423672
      pz      :     1.697264  p :     4.652923
      px      :     1.337541
      py      :     1.618118
      dz2     :     0.002248  d :     0.018703
      dxz     :     0.000614
      dyz     :     0.005502
      dx2y2   :     0.007628
      dxy     :     0.002711

  1 H s       :     0.736857  s :     0.736857
      pz      :     0.064461  p :     0.171902
      px      :     0.033733
      py      :     0.073708

  2 H s       :     0.736779  s :     0.736779
      pz      :     0.044038  p :     0.171888
      px      :     0.086239
      py      :     0.041612

  3 O s       :     3.443399  s :     3.443399
      pz      :     1.625016  p :     4.726222
      px      :     1.744565
      py      :     1.356641
      dz2     :     0.000502  d :     0.018733
      dxz     :     0.003191
      dyz     :     0.010700
      dx2y2   :     0.002183
      dxy     :     0.002157

  4 H s       :     0.762606  s :     0.762606
      pz      :     0.067428  p :     0.199057
      px      :     0.071752
      py      :     0.059877

  5 H s       :     0.762005  s :     0.762005
      pz      :     0.062800  p :     0.175254
      px      :     0.047505
      py      :     0.064949



                      *****************************
                      * MAYER POPULATION ANALYSIS *
                      *****************************

  NA   - Mulliken gross atomic population
  ZA   - Total nuclear charge
  QA   - Mulliken gross atomic charge
  VA   - Mayer's total valence
  BVA  - Mayer's bonded valence
  FA   - Mayer's free valence

  ATOM       NA         ZA         QA         VA         BVA        FA
  0 O      8.2652     8.0000    -0.2652     2.1152     2.1152    -0.0000
  1 H      0.8315     1.0000     0.1685     1.0042     1.0042    -0.0000
  2 H      0.8314     1.0000     0.1686     1.0040     1.0040    -0.0000
  3 O      8.3381     8.0000    -0.3381     1.9877     1.9877    -0.0000
  4 H      0.8647     1.0000     0.1353     1.0914     1.0914     0.0000
  5 H      0.8691     1.0000     0.1309     1.0151     1.0151    -0.0000

  Mayer bond orders larger than 0.100000
B(  0-O ,  1-H ) :   0.9899 B(  0-O ,  2-H ) :   0.9898 B(  0-O ,  4-H ) :   0.1279 
B(  3-O ,  4-H ) :   0.9590 B(  3-O ,  5-H ) :   1.0122 

-------
TIMINGS
-------

Total SCF time: 0 days 0 hours 0 min 1 sec 

Total time                  ....       1.116 sec
Sum of individual times     ....       1.038 sec  ( 93.0%)

SCF preparation             ....       0.407 sec  ( 36.5%)
Fock matrix formation       ....       0.575 sec  ( 51.5%)
  Startup                   ....       0.002 sec  (  0.3% of F)
  Split-RI-J                ....       0.032 sec  (  5.6% of F)
  Chain of spheres X        ....       0.407 sec  ( 70.8% of F)
  XC integration            ....       0.159 sec  ( 27.6% of F)
    Basis function eval.    ....       0.045 sec  ( 28.2% of XC)
    Density eval.           ....       0.017 sec  ( 10.6% of XC)
    XC-Functional eval.     ....       0.019 sec  ( 12.1% of XC)
    XC-Potential eval.      ....       0.019 sec  ( 11.9% of XC)
Diagonalization             ....       0.000 sec  (  0.0%)
Density matrix formation    ....       0.008 sec  (  0.7%)
Total Energy calculation    ....       0.005 sec  (  0.5%)
Population analysis         ....       0.004 sec  (  0.4%)
Orbital Transformation      ....       0.004 sec  (  0.4%)
Orbital Orthonormalization  ....       0.000 sec  (  0.0%)
DIIS solution               ....       0.022 sec  (  1.9%)
SOSCF solution              ....       0.013 sec  (  1.1%)
Finished LeanSCF after   1.1 sec

Maximum memory used throughout the entire LEANSCF-calculation: 5.6 MB
[1770538371.189036] [node068:2121281:0]     ucp_context.c:1234 UCX  WARN  transport 'ib' is not available, please use one or more of: mm, posix, self, shm, sm, sysv, tcp
[1770538371.203774] [node068:2121282:0]     ucp_context.c:1234 UCX  WARN  transport 'ib' is not available, please use one or more of: mm, posix, self, shm, sm, sysv, tcp
[1770538371.230646] [node068:2121284:0]     ucp_context.c:1234 UCX  WARN  transport 'ib' is not available, please use one or more of: mm, posix, self, shm, sm, sysv, tcp
[1770538371.257637] [node068:2121288:0]     ucp_context.c:1234 UCX  WARN  transport 'ib' is not available, please use one or more of: mm, posix, self, shm, sm, sysv, tcp


           ************************************************************
           *        Program running with 4 parallel MPI-processes     *
           *              working on a common directory               *
           ************************************************************

------------------------------------------------------------------------------
                         ORCA PROPERTY INTEGRAL CALCULATIONS
------------------------------------------------------------------------------

GBWName                                   ... h2o_dimer.gbw
Number of atoms                           ...      6
Number of basis functions                 ...     48
Max core memory                           ...   1500 MB

Dipole integrals                          ... YES
Quadrupole integrals                      ...  NO
Linear momentum integrals                 ...  NO
Angular momentum integrals                ...  NO
Higher moments length integrals           ...  NO
Higher moments velocity integrals         ...  NO
Kinetic energy integrals                  ...  NO
GIAO right hand sides                     ...  NO
GIAO dipole derivative integrals          ...  NO
SOC integrals                             ...  NO
EPR diamagnetic integrals (GIAO)          ...  NO
EPR gauge integrals                       ...  NO
Field gradient integrals                  ...  NO (   0 nuclei)
Spin-dipole/Fermi contact integrals       ...  NO (   0 nuclei)
Contact density integrals                 ...  NO (   0 nuclei)
Nucleus-orbit integrals                   ...  NO (   0 nuclei)
Geometric perturbations                   ...  NO (   6 nuclei)

Choice of electric origin   ... Center of mass
Position of electric origin ... ( -2.0931, -0.4360,  0.0204) 
Choice of magnetic origin   ... GIAO
Position of magnetic origin ... (  0.0000,  0.0000,  0.0000) 

Calculating integrals                     ... Electric Dipole (Length)     done (  0.0 sec)

Property integrals calculated in   0.0 sec

Maximum memory used throughout the entire PROPINT-calculation: 5.9 MB

-------------------------   --------------------
FINAL SINGLE POINT ENERGY      -152.653862202667
-------------------------   --------------------

[1770538372.697605] [node068:2121321:0]     ucp_context.c:1234 UCX  WARN  transport 'ib' is not available, please use one or more of: mm, posix, self, shm, sm, sysv, tcp
[1770538372.714885] [node068:2121322:0]     ucp_context.c:1234 UCX  WARN  transport 'ib' is not available, please use one or more of: mm, posix, self, shm, sm, sysv, tcp
[1770538372.738422] [node068:2121325:0]     ucp_context.c:1234 UCX  WARN  transport 'ib' is not available, please use one or more of: mm, posix, self, shm, sm, sysv, tcp
[1770538372.765910] [node068:2121328:0]     ucp_context.c:1234 UCX  WARN  transport 'ib' is not available, please use one or more of: mm, posix, self, shm, sm, sysv, tcp


           ************************************************************
           *        Program running with 4 parallel MPI-processes     *
           *              working on a common directory               *
           ************************************************************
------------------------------------------------------------------------------
                         ORCA SCF GRADIENT CALCULATION
------------------------------------------------------------------------------

Nuc. rep. gradient        (SHARK) ... done (  0.0 sec)
HCore & Overlap gradient  (SHARK) ... done (  0.0 sec)
Split-RIJ-J gradient      (SHARK) ... done (  0.1 sec)
done (  0.2 sec)
XC gradient                       ... done (  0.1 sec)

------------------
CARTESIAN GRADIENT
------------------

   1   O   :    0.008322627   -0.009026657   -0.008418568
   2   H   :   -0.001411553    0.004247569    0.003565670
   3   H   :   -0.004529508    0.002902246    0.001917088
   4   O   :    0.003841400   -0.002099967   -0.005802417
   5   H   :   -0.005594308    0.004688907    0.006642587
   6   H   :   -0.000628658   -0.000712098    0.002095639

Difference to translation invariance:
           :    0.0000000001   -0.0000000000   -0.0000000001

Difference to rotation invariance:
           :   -0.0000098975   -0.0000092030   -0.0000327234

Norm of the Cartesian gradient     ...    0.0210360718
RMS gradient                       ...    0.0049582497
MAX gradient                       ...    0.0090266569

-------
TIMINGS
-------

Total SCF gradient time     ....        0.343 sec

Densities                   ....       0.000 sec  (  0.0%)
One electron gradient       ....       0.005 sec  (  1.6%)
RI-J Coulomb gradient       ....       0.051 sec  ( 14.9%)
COSX gradient               ....       0.229 sec  ( 66.7%)
XC gradient                 ....       0.057 sec  ( 16.7%)

Maximum memory used throughout the entire SCFGRAD-calculation: 7.2 MB
------------------------------------------------------------------------------
                         ORCA GEOMETRY RELAXATION STEP
------------------------------------------------------------------------------

Reading the OPT-File                    .... done
Getting information on internals        .... done
Copying old internal coords+grads       .... done
Making the new internal coordinates     .... (2022 redundants) done
Validating the new internal coordinates .... (2022 redundants) done
Calculating the B-matrix                .... done
Calculating the G,G- and P matrices     .... done
Transforming gradient to internals      .... done
Projecting the internal gradient        .... done
Number of atoms                         ....   6
Number of internal coordinates          ....  13
Current Energy                          ....  -152.653862203 Eh
Current gradient norm                   ....     0.021036072 Eh/bohr
Maximum allowed component of the step   ....  0.300
Current trust radius                    ....  0.300
Evaluating the initial hessian          ....  (Almloef) done
Projecting the Hessian                  .... done
Forming the augmented Hessian           .... done
Diagonalizing the augmented Hessian     .... done
Last element of RFO vector              ....  0.987268239
Lowest eigenvalues of augmented Hessian:
 -0.000955276  0.010000252  0.026536866  0.031586062  0.204835405
Length of the computed step             ....  0.161115496
The final length of the internal step   ....  0.161115496
Converting the step to Cartesian space:
 Initial RMS(Int)=    0.0446853985
Transforming coordinates:
 Iter   0:  RMS(Cart)=    0.0415229909 RMS(Int)=    0.0446853790
done
Storing new coordinates                 .... done

                                .--------------------.
          ----------------------|Geometry convergence|-------------------------
          Item                value                   Tolerance       Converged
          ---------------------------------------------------------------------
          RMS gradient        0.0031658833            0.0001000000      NO
          MAX gradient        0.0055877462            0.0003000000      NO
          RMS step            0.0446853985            0.0020000000      NO
          MAX step            0.1571124009            0.0040000000      NO
          -------------------------------------------------------------------------
          ........................................................
          Max(Bonds)      0.0831      Max(Angles)    0.70
          Max(Dihed)        1.02      Max(Improp)    0.00
          ---------------------------------------------------------------------

The optimization has not yet converged - more geometry cycles are needed


    ---------------------------------------------------------------------------
                         Redundant Internal Coordinates
                            (Angstroem and degrees)

        Definition                    Value    dE/dq     Step     New-Value
    ----------------------------------------------------------------------------
     1. B(H   1,O   0)                0.9726  0.004811 -0.0051    0.9675   
     2. B(H   2,O   0)                0.9727  0.004814 -0.0051    0.9676   
     3. B(H   4,O   3)                0.9830  0.005588 -0.0062    0.9768   
     4. B(H   4,O   0)                1.7767 -0.004216  0.0831    1.8599   
     5. B(H   5,O   3)                0.9686  0.001780 -0.0019    0.9668   
     6. A(H   1,O   0,H   2)          102.80 -0.003715    0.61    103.42   
     7. A(H   1,O   0,H   4)          125.53  0.002235   -0.70    124.84   
     8. A(H   2,O   0,H   4)          125.34  0.002158   -0.68    124.67   
     9. A(H   4,O   3,H   5)          101.29 -0.002663    0.48    101.77   
    10. A(O   0,H   4,O   3)          169.72 -0.001053    0.29    170.01   
    11. D(O   3,H   4,O   0,H   2)   -110.37  0.000235   -0.63   -110.99   
    12. D(O   0,H   4,O   3,H   5)      1.68 -0.000061    0.01      1.69   
    13. D(O   3,H   4,O   0,H   1)    102.46 -0.000311    1.02    103.48   
    ----------------------------------------------------------------------------

Geometry step timings:
Preparation and reading OPT file:      0.000 s ( 2.835 %)
Internal coordinates            :      0.000 s ( 7.581 %)
B/P matrices and projection     :      0.000 s (13.843 %)
Hessian update/contruction      :      0.000 s (11.074 %)
Making the step                 :      0.000 s (14.041 %)
Converting the step to Cartesian:      0.000 s ( 5.735 %)
Storing new data                :      0.000 s ( 3.428 %)
Checking convergence            :      0.000 s (12.459 %)
Final printing                  :      0.000 s (28.609 %)
Total time                      :      0.002 s
[1770538374.549830] [node068:2121361:0]     ucp_context.c:1234 UCX  WARN  transport 'ib' is not available, please use one or more of: mm, posix, self, shm, sm, sysv, tcp
[1770538374.562003] [node068:2121362:0]     ucp_context.c:1234 UCX  WARN  transport 'ib' is not available, please use one or more of: mm, posix, self, shm, sm, sysv, tcp
[1770538374.591002] [node068:2121364:0]     ucp_context.c:1234 UCX  WARN  transport 'ib' is not available, please use one or more of: mm, posix, self, shm, sm, sysv, tcp
[1770538374.615917] [node068:2121368:0]     ucp_context.c:1234 UCX  WARN  transport 'ib' is not available, please use one or more of: mm, posix, self, shm, sm, sysv, tcp

Time for energy+gradient        :      8.777 s
Time for complete geometry iter :     10.256 s

         *************************************************************
         *                GEOMETRY OPTIMIZATION CYCLE   2            *
         *************************************************************
---------------------------------
CARTESIAN COORDINATES (ANGSTROEM)
---------------------------------
  O     -1.870970    0.499689    0.871580
  H     -1.557850    1.233392    1.419073
  H     -2.818156    0.675372    0.781428
  O     -0.288286   -1.002735   -0.925502
  H     -0.838814   -0.404886   -0.383623
  H     -0.199606   -1.770137   -0.344264

----------------------------
CARTESIAN COORDINATES (A.U.)
----------------------------
  NO LB      ZA    FRAG     MASS         X           Y           Z
   0 O     8.0000    0    15.999   -3.535620    0.944275    1.647047
   1 H     1.0000    0     1.008   -2.943910    2.330772    2.681660
   2 H     1.0000    0     1.008   -5.325544    1.276269    1.476685
   3 O     8.0000    0    15.999   -0.544781   -1.894894   -1.748946
   4 H     1.0000    0     1.008   -1.585129   -0.765124   -0.724943
   5 H     1.0000    0     1.008   -0.377201   -3.345075   -0.650565

--------------------------------
INTERNAL COORDINATES (ANGSTROEM)
--------------------------------
 O      0   0   0     0.000000000000     0.00000000     0.00000000
 H      1   0   0     0.967529083223     0.00000000     0.00000000
 H      1   2   0     0.967550955653   103.40592600     0.00000000
 O      1   2   3     2.826953912494   125.56016727   155.51514581
 H      4   1   2     0.976799129985     6.55140876   281.11238729
 H      4   1   2     0.966751273756    95.22291385   102.77327858

---------------------------
INTERNAL COORDINATES (A.U.)
---------------------------
 O      0   0   0     0.000000000000     0.00000000     0.00000000
 H      1   0   0     1.828364993895     0.00000000     0.00000000
 H      1   2   0     1.828406326798   103.40592600     0.00000000
 O      1   2   3     5.342168687831   125.56016727   155.51514581
 H      4   1   2     1.845882843524     6.55140876   281.11238729
 H      4   1   2     1.826895147019    95.22291385   102.77327858

[1770538376.027250] [node068:2121381:0]     ucp_context.c:1234 UCX  WARN  transport 'ib' is not available, please use one or more of: mm, posix, self, shm, sm, sysv, tcp
[1770538376.043786] [node068:2121382:0]     ucp_context.c:1234 UCX  WARN  transport 'ib' is not available, please use one or more of: mm, posix, self, shm, sm, sysv, tcp
[1770538376.067285] [node068:2121384:0]     ucp_context.c:1234 UCX  WARN  transport 'ib' is not available, please use one or more of: mm, posix, self, shm, sm, sysv, tcp
[1770538376.094830] [node068:2121388:0]     ucp_context.c:1234 UCX  WARN  transport 'ib' is not available, please use one or more of: mm, posix, self, shm, sm, sysv, tcp


           ************************************************************
           *        Program running with 4 parallel MPI-processes     *
           *              working on a common directory               *
           ************************************************************
------------------------------------------------------------------------------
                   ___                                                        
                  /   \      - P O W E R E D   B Y -                         
                 /     \                                                     
                 |  |  |   _    _      __       _____    __    __             
                 |  |  |  | |  | |    /  \     |  _  \  |  |  /  |          
                  \  \/   | |  | |   /    \    | | | |  |  | /  /          
                 / \  \   | |__| |  /  /\  \   | |_| |  |  |/  /          
                |  |  |   |  __  | /  /__\  \  |    /   |      \           
                |  |  |   | |  | | |   __   |  |    \   |  |\   \          
                \     /   | |  | | |  |  |  |  | |\  \  |  | \   \       
                 \___/    |_|  |_| |__|  |__|  |_| \__\ |__|  \__/        
                                                                              
                      - O R C A' S   B I G   F R I E N D -                    
                                      &                                       
                       - I N T E G R A L  F E E D E R -                       
                                                                              
 v1 FN, 2020, v2 2021, v3 2022-2024                                           
------------------------------------------------------------------------------


----------------------
SHARK INTEGRAL PACKAGE
----------------------

Number of atoms                             ...      6
Number of basis functions                   ...     48
Number of shells                            ...     24
Maximum angular momentum                    ...      2
Integral batch strategy                     ... SHARK/LIBINT Hybrid
RI-J (if used) integral strategy            ... SPLIT-RIJ (Revised 2003 algorithm where possible)
Printlevel                                  ...      1
Contraction scheme used                     ... SEGMENTED contraction
Prescreening option                         ... SCHWARTZ
   Thresh                                   ... 2.500e-11
   Tcut                                     ... 2.500e-12
   Tpresel                                  ... 2.500e-12 
Coulomb Range Separation                    ... NOT USED
Exchange Range Separation                   ... NOT USED
Multipole approximations                    ... NOT USED
Finite Nucleus Model                        ... NOT USED
CABS basis                                  ... NOT available
Auxiliary Coulomb fitting basis             ... AVAILABLE
   # of basis functions in Aux-J            ...    142
   # of shells in Aux-J                     ...     50
   Maximum angular momentum in Aux-J        ...      4
Auxiliary J/K fitting basis                 ... NOT available
Auxiliary Correlation fitting basis         ... NOT available
Auxiliary 'external' fitting basis          ... NOT available

Checking pre-screening integrals            ... done (  0.0 sec) Dimension = 24
   => SHARK Basis and OBASIS are compatible. Storing Pre-screening
Shell pair information
Shell pair cut-off parameter TPreSel        ...   2.5e-12
Total number of shell pairs                 ...       300
Shell pairs after pre-screening             ...       297
Total number of primitive shell pairs       ...      1028
Primitive shell pairs kept                  ...       858
          la=0 lb=0:    104 shell pairs
          la=1 lb=0:    110 shell pairs
          la=1 lb=1:     36 shell pairs
          la=2 lb=0:     28 shell pairs
          la=2 lb=1:     16 shell pairs
          la=2 lb=2:      3 shell pairs

Checking whether 4 symmetric matrices of dimension 48 fit in memory
:Max Core in MB      =   1500.00
 MB in use           =      3.58
 MB left             =   1496.42
 MB needed           =      0.04
 Data fit in memory  = YES
Calculating RI/J V-Matrix + Cholesky decomp.... done (  0.0 sec)
Calculating Nuclear repulsion               ... done (  0.0 sec) ENN=     36.929999910382 Eh

Diagonalization of the overlap matrix:
Smallest eigenvalue                        ... 3.027e-02
Time for diagonalization                   ...    0.000 sec
Threshold for overlap eigenvalues          ... 1.000e-07
Number of eigenvalues below threshold      ... 0
Time for construction of square roots      ...    0.000 sec
Total time needed                          ...    0.001 sec

-------------------
DFT GRID GENERATION
-------------------

General Integration Accuracy     IntAcc      ... 4.388
Radial Grid Type                 RadialGrid  ... OptM3 with GC (2021)
Angular Grid (max. ang.)         AngularGrid ... 4 (Lebedev-302)
Angular grid pruning method      GridPruning ... 4 (adaptive)
Weight generation scheme         WeightScheme... mBecke (2022)
Basis function cutoff            BFCut       ... 1.0000e-11
Integration weight cutoff        WCut        ... 1.0000e-14
Partially contracted basis set               ... off
Rotationally invariant grid construction     ... off
Angular grids for H and He will be reduced by one unit

Total number of grid points                  ...    25446
Total number of batches                      ...      400
Average number of points per batch           ...       63
Average number of grid points per atom       ...     4241

--------------------
COSX GRID GENERATION
--------------------

GRIDX 1
-------
General Integration Accuracy     IntAcc      ... 3.816
Radial Grid Type                 RadialGrid  ... OptM3 with GC (2021)
Angular Grid (max. ang.)         AngularGrid ... 1 (Lebedev-50)
Angular grid pruning method      GridPruning ... 4 (adaptive)
Weight generation scheme         WeightScheme... mBecke (2022)
Basis function cutoff            BFCut       ... 1.0000e-11
Integration weight cutoff        WCut        ... 1.0000e-14
Partially contracted basis set               ... on
Rotationally invariant grid construction     ... off
Angular grids for H and He will be reduced by one unit

Total number of grid points                  ...     3301
Total number of batches                      ...       28
Average number of points per batch           ...      117
Average number of grid points per atom       ...      550
UseSFitting                                  ... on

GRIDX 2
-------
General Integration Accuracy     IntAcc      ... 4.020
Radial Grid Type                 RadialGrid  ... OptM3 with GC (2021)
Angular Grid (max. ang.)         AngularGrid ... 2 (Lebedev-110)
Angular grid pruning method      GridPruning ... 4 (adaptive)
Weight generation scheme         WeightScheme... mBecke (2022)
Basis function cutoff            BFCut       ... 1.0000e-11
Integration weight cutoff        WCut        ... 1.0000e-14
Partially contracted basis set               ... on
Rotationally invariant grid construction     ... off
Angular grids for H and He will be reduced by one unit

Total number of grid points                  ...     6975
Total number of batches                      ...       58
Average number of points per batch           ...      120
Average number of grid points per atom       ...     1162
UseSFitting                                  ... on

GRIDX 3
-------
General Integration Accuracy     IntAcc      ... 4.338
Radial Grid Type                 RadialGrid  ... OptM3 with GC (2021)
Angular Grid (max. ang.)         AngularGrid ... 3 (Lebedev-194)
Angular grid pruning method      GridPruning ... 4 (adaptive)
Weight generation scheme         WeightScheme... mBecke (2022)
Basis function cutoff            BFCut       ... 1.0000e-11
Integration weight cutoff        WCut        ... 1.0000e-14
Partially contracted basis set               ... on
Rotationally invariant grid construction     ... off
Angular grids for H and He will be reduced by one unit

Total number of grid points                  ...    15373
Total number of batches                      ...      124
Average number of points per batch           ...      123
Average number of grid points per atom       ...     2562
UseSFitting                                  ... on
Grids setup in   0.1 sec
Initializing property integral containers    ... done (  0.0 sec)

SHARK setup successfully completed in   0.2 seconds

Maximum memory used throughout the entire STARTUP-calculation: 9.0 MB
[1770538377.683103] [node068:2121422:0]     ucp_context.c:1234 UCX  WARN  transport 'ib' is not available, please use one or more of: mm, posix, self, shm, sm, sysv, tcp
[1770538377.702459] [node068:2121427:0]     ucp_context.c:1234 UCX  WARN  transport 'ib' is not available, please use one or more of: mm, posix, self, shm, sm, sysv, tcp
[1770538377.722049] [node068:2121431:0]     ucp_context.c:1234 UCX  WARN  transport 'ib' is not available, please use one or more of: mm, posix, self, shm, sm, sysv, tcp
[1770538377.753170] [node068:2121437:0]     ucp_context.c:1234 UCX  WARN  transport 'ib' is not available, please use one or more of: mm, posix, self, shm, sm, sysv, tcp


           ************************************************************
           *        Program running with 4 parallel MPI-processes     *
           *              working on a common directory               *
           ************************************************************
Occupation numbers will be reassigned to an Aufbau configuration
             **** ENERGY FILE WAS UPDATED (h2o_dimer.en.tmp) ****
Finished Guess after   0.4 sec
Maximum memory used throughout the entire GUESS-calculation: 5.8 MB
[1770538379.198004] [node068:2121461:0]     ucp_context.c:1234 UCX  WARN  transport 'ib' is not available, please use one or more of: mm, posix, self, shm, sm, sysv, tcp
[1770538379.211085] [node068:2121462:0]     ucp_context.c:1234 UCX  WARN  transport 'ib' is not available, please use one or more of: mm, posix, self, shm, sm, sysv, tcp
[1770538379.238017] [node068:2121464:0]     ucp_context.c:1234 UCX  WARN  transport 'ib' is not available, please use one or more of: mm, posix, self, shm, sm, sysv, tcp
[1770538379.263832] [node068:2121468:0]     ucp_context.c:1234 UCX  WARN  transport 'ib' is not available, please use one or more of: mm, posix, self, shm, sm, sysv, tcp


           ************************************************************
           *        Program running with 4 parallel MPI-processes     *
           *              working on a common directory               *
           ************************************************************
----------------------------------------D-I-I-S--------------------------------------------
Iteration    Energy (Eh)           Delta-E    RMSDP     MaxDP     DIISErr   Damp  Time(sec)
-------------------------------------------------------------------------------------------
               ***  Starting incremental Fock matrix formation  ***
    1    -152.6542527412912875     0.00e+00  5.17e-04  2.26e-03  5.36e-03  0.700   0.1
    2    -152.6543245845622039    -7.18e-05  4.60e-04  1.95e-03  4.11e-03  0.700   0.1
                               ***Turning on AO-DIIS***
                              *** Initializing SOSCF ***
---------------------------------------S-O-S-C-F--------------------------------------
Iteration    Energy (Eh)           Delta-E    RMSDP     MaxDP     MaxGrad    Time(sec)
--------------------------------------------------------------------------------------
    3    -152.6543773587087856    -5.28e-05  1.17e-03  4.84e-03  3.01e-03     0.1
               *** Restarting incremental Fock matrix formation ***
    4    -152.6545052809647132    -1.28e-04  2.26e-04  1.19e-03  4.42e-04     0.1
    5    -152.6545046638865983     6.17e-07  1.18e-04  6.90e-04  6.04e-04     0.1
    6    -152.6545069451446750    -2.28e-06  7.71e-06  4.87e-05  1.58e-05     0.1
    7    -152.6545069443615716     7.83e-10  3.99e-06  2.46e-05  1.88e-05     0.1
                 **** Energy Check signals convergence ****

               *****************************************************
               *                     SUCCESS                       *
               *           SCF CONVERGED AFTER   7 CYCLES          *
               *****************************************************

Recomputing exchange energy using gridx3       ... done (    0.063 sec)
Old exchange energy                            :     -3.579021003 Eh
New exchange energy                            :     -3.578992221 Eh
Exchange energy change after final integration :      0.000028782 Eh
Total energy after final integration           :   -152.654478166 Eh
             **** ENERGY FILE WAS UPDATED (h2o_dimer.en.tmp) ****

----------------
TOTAL SCF ENERGY
----------------

Total Energy       :       -152.65447816575968 Eh           -4153.93953 eV

Components:
Nuclear Repulsion  :         36.92999991038216 Eh            1004.91639 eV
Electronic Energy  :       -189.58450685788995 Eh           -5158.85670 eV
One Electron Energy:       -283.38754814439056 Eh           -7711.36722 eV
Two Electron Energy:         93.80304128650063 Eh            2552.51052 eV

Virial components:
Potential Energy   :       -304.29518307457573 Eh           -8280.29289 eV
Kinetic Energy     :        151.64070490881605 Eh            4126.35336 eV
Virial Ratio       :          2.00668536365320

DFT components:
N(Alpha)           :       10.000000284507 electrons
N(Beta)            :       10.000000284507 electrons
N(Total)           :       20.000000569014 electrons
E(X)               :      -14.242128810487 Eh       
E(C)               :       -0.808276027914 Eh       
E(XC)              :      -15.050404838401 Eh       

---------------
SCF CONVERGENCE
---------------

  Last Energy change         ...   -7.8310e-10  Tolerance :   1.0000e-08
  Last MAX-Density change    ...    2.4575e-05  Tolerance :   1.0000e-07
  Last RMS-Density change    ...    3.9908e-06  Tolerance :   5.0000e-09
  Last DIIS Error            ...    3.0050e-03  Tolerance :   5.0000e-07
  Last Orbital Gradient      ...    1.8771e-05  Tolerance :   1.0000e-05
  Last Orbital Rotation      ...    1.0730e-05  Tolerance :   1.0000e-05


Total SCF time: 0 days 0 hours 0 min 0 sec 
Finished LeanSCF after   1.0 sec

Maximum memory used throughout the entire LEANSCF-calculation: 5.6 MB
[1770538381.263286] [node068:2121517:0]     ucp_context.c:1234 UCX  WARN  transport 'ib' is not available, please use one or more of: mm, posix, self, shm, sm, sysv, tcp
[1770538381.280464] [node068:2121518:0]     ucp_context.c:1234 UCX  WARN  transport 'ib' is not available, please use one or more of: mm, posix, self, shm, sm, sysv, tcp
[1770538381.306625] [node068:2121521:0]     ucp_context.c:1234 UCX  WARN  transport 'ib' is not available, please use one or more of: mm, posix, self, shm, sm, sysv, tcp
[1770538381.335097] [node068:2121524:0]     ucp_context.c:1234 UCX  WARN  transport 'ib' is not available, please use one or more of: mm, posix, self, shm, sm, sysv, tcp


           ************************************************************
           *        Program running with 4 parallel MPI-processes     *
           *              working on a common directory               *
           ************************************************************

------------------------------------------------------------------------------
                         ORCA PROPERTY INTEGRAL CALCULATIONS
------------------------------------------------------------------------------

GBWName                                   ... h2o_dimer.gbw
Number of atoms                           ...      6
Number of basis functions                 ...     48
Max core memory                           ...   1500 MB

Dipole integrals                          ... YES
Quadrupole integrals                      ...  NO
Linear momentum integrals                 ...  NO
Angular momentum integrals                ...  NO
Higher moments length integrals           ...  NO
Higher moments velocity integrals         ...  NO
Kinetic energy integrals                  ...  NO
GIAO right hand sides                     ...  NO
GIAO dipole derivative integrals          ...  NO
SOC integrals                             ...  NO
EPR diamagnetic integrals (GIAO)          ...  NO
EPR gauge integrals                       ...  NO
Field gradient integrals                  ...  NO (   0 nuclei)
Spin-dipole/Fermi contact integrals       ...  NO (   0 nuclei)
Contact density integrals                 ...  NO (   0 nuclei)
Nucleus-orbit integrals                   ...  NO (   0 nuclei)
Geometric perturbations                   ...  NO (   6 nuclei)

Choice of electric origin   ... Center of mass
[...]
x,y,z [Debye]:     2.036206    -0.251707    -0.019824 

 

Dipole moment calculation done in   0.0 sec 

-----------
SCF HESSIAN
-----------

Occupied/Occupied contributions to the Hessian:
   => Occupied/Occupied contributions              ... done (  0.0 sec)
Perturbed density contributions to the Hessian:
   => Perturbed density contributions              ... done (  0.0 sec)
Explicit contributions to the Hessian:
   => Nuclear repulsion Hessian                    ... done (  0.0 sec)
   => HCore and overlap Hessian                    ... done (  0.0 sec)
   => RI-J Hessian                                 ... done (  0.1 sec)
   => COSX Hessian                                 ... done (  1.7 sec)
   => XC-Hessian                                   ... done (  0.4 sec)
   => Explicit contributions done
Dipole derivatives                                 ... done (  0.0 sec)
Mass weighting the Hessian           ... done
Calculating normal modes             ... done
Scaling frequencies                  ... done

-----------------------
VIBRATIONAL FREQUENCIES
-----------------------

Scaling factor for frequencies =  1.000000000  (already applied!)

     0:       0.00 cm**-1
     1:       0.00 cm**-1
     2:       0.00 cm**-1
     3:       0.00 cm**-1
     4:       0.00 cm**-1
     5:       0.00 cm**-1
     6:     -69.64 cm**-1  ***imaginary mode***
     7:     131.94 cm**-1
     8:     181.05 cm**-1
     9:     216.01 cm**-1
    10:     427.18 cm**-1
    11:     683.03 cm**-1
    12:    1630.94 cm**-1
    13:    1667.80 cm**-1
    14:    3676.64 cm**-1
    15:    3779.22 cm**-1
    16:    3851.96 cm**-1
    17:    3871.45 cm**-1


------------
NORMAL MODES
------------

These modes are the Cartesian displacements weighted by the diagonal matrix
M(i,i)=1/sqrt(m[i]) where m[i] is the mass of the displaced atom
Thus, these vectors are normalized but *not* orthogonal

                  0          1          2          3          4          5    
      0       0.000000   0.000000   0.000000   0.000000   0.000000   0.000000
      1       0.000000   0.000000   0.000000   0.000000   0.000000   0.000000
      2       0.000000   0.000000   0.000000   0.000000   0.000000   0.000000
      3       0.000000   0.000000   0.000000   0.000000   0.000000   0.000000
      4       0.000000   0.000000   0.000000   0.000000   0.000000   0.000000
      5       0.000000   0.000000   0.000000   0.000000   0.000000   0.000000
      6       0.000000   0.000000   0.000000   0.000000   0.000000   0.000000
      7       0.000000   0.000000   0.000000   0.000000   0.000000   0.000000
      8       0.000000   0.000000   0.000000   0.000000   0.000000   0.000000
      9       0.000000   0.000000   0.000000   0.000000   0.000000   0.000000
     10       0.000000   0.000000   0.000000   0.000000   0.000000   0.000000
     11       0.000000   0.000000   0.000000   0.000000   0.000000   0.000000
     12       0.000000   0.000000   0.000000   0.000000   0.000000   0.000000
     13       0.000000   0.000000   0.000000   0.000000   0.000000   0.000000
     14       0.000000   0.000000   0.000000   0.000000   0.000000   0.000000
     15       0.000000   0.000000   0.000000   0.000000   0.000000   0.000000
     16       0.000000   0.000000   0.000000   0.000000   0.000000   0.000000
     17       0.000000   0.000000   0.000000   0.000000   0.000000   0.000000
                  6          7          8          9         10         11    
      0       0.018371   0.008092   0.004939   0.220248  -0.021014  -0.029655
      1       0.008533  -0.011921   0.000308  -0.182350  -0.012240  -0.013606
      2       0.009417  -0.005493  -0.000021  -0.273263   0.053685  -0.014686
      3      -0.393974   0.298370   0.104818  -0.088616   0.236943   0.227246
      4       0.280528  -0.191225  -0.048162   0.008367  -0.169772  -0.180130
      5       0.152403  -0.430187  -0.530166   0.202904  -0.330215  -0.165000
      6       0.132939   0.312913  -0.349611  -0.090654   0.246171  -0.139114
      7      -0.399282  -0.186546  -0.070377  -0.001370  -0.168228   0.218071
      8      -0.282832  -0.437618   0.397223   0.167590  -0.328324   0.205404
      9       0.005189  -0.059178   0.052941  -0.174267   0.012924  -0.024070
     10       0.002411   0.057065   0.026769   0.142157   0.001832  -0.011089
     11       0.002449   0.064503   0.029266   0.213561  -0.027561  -0.011773
     12       0.346432   0.014993  -0.165990  -0.220363  -0.065860   0.728178
     13       0.158936  -0.338648  -0.076879   0.437802   0.427152   0.337446
     14       0.172963   0.283904  -0.078828   0.055215  -0.264795   0.362581
     15      -0.459332   0.184554  -0.507879  -0.330191  -0.288855   0.036419
     16      -0.213881  -0.000104  -0.234351   0.193155   0.076049   0.016573
     17      -0.230883  -0.352701  -0.252411   0.521888   0.508684   0.016978
                 12         13         14         15         16         17    
      0       0.011960   0.001172   0.000778   0.007285  -0.000285   0.057871
      1      -0.061113   0.003074  -0.004930  -0.043366   0.001783   0.026042
      2       0.031647  -0.005223   0.002875   0.023904  -0.000863   0.029095
      3      -0.450257  -0.002309   0.044670   0.419611  -0.017391  -0.390374
      4       0.322814   0.000333   0.061011   0.565134  -0.023347  -0.582172
      5      -0.436272   0.032461   0.002487   0.048972  -0.002410  -0.020204
      6       0.265823  -0.021892  -0.056132  -0.536616   0.021504  -0.528856
      7       0.648254  -0.008140   0.014924   0.125570  -0.004715   0.168511
      8      -0.077728   0.023110  -0.047833  -0.427755   0.016683  -0.441946
      9      -0.000023   0.012666   0.027390  -0.001842   0.025880  -0.000013
     10       0.001060   0.033689  -0.007200  -0.001575  -0.059611   0.000067
     11      -0.000894  -0.056919  -0.048341   0.005167   0.003590   0.000021
     12       0.004849   0.119042  -0.523025   0.051249  -0.127426   0.000884
     13      -0.020355  -0.650035   0.351100  -0.037483   0.058845   0.000090
     14       0.008970   0.367881   0.723970  -0.068111   0.201298  -0.000109
     15      -0.009886  -0.314476   0.087405  -0.020632  -0.282926   0.000025
     16       0.002440   0.074344  -0.234507   0.060074   0.887056  -0.000824
     17       0.016915   0.562861   0.043015  -0.014516  -0.258857   0.000124


-----------
IR SPECTRUM
-----------

 Mode   freq       eps      Int      T**2         TX        TY        TZ
       cm**-1   L/(mol*cm) km/mol    a.u.
----------------------------------------------------------------------------
  7:    131.94   0.058051  293.36  0.137304  ( 0.209748 -0.185291 -0.242852)
  8:    181.05   0.033205  167.81  0.057235  (-0.197128 -0.092072 -0.099491)
  9:    216.01   0.018142   91.68  0.026209  (-0.088113  0.079405  0.110180)
 10:    427.18   0.005221   26.39  0.003814  ( 0.018641  0.019133 -0.055683)
 11:    683.03   0.021523  108.77  0.009833  ( 0.082280  0.037800  0.040428)
 12:   1630.94   0.011918   60.23  0.002280  (-0.007586  0.041420 -0.022520)
 13:   1667.80   0.009580   48.41  0.001792  (-0.006570 -0.023200  0.034800)
 14:   3676.64   0.058265  294.45  0.004945  (-0.039440  0.037640  0.044420)
 15:   3779.22   0.003214   16.24  0.000265  (-0.001338  0.013418 -0.009143)
 16:   3851.96   0.009147   46.23  0.000741  (-0.014657  0.020497  0.010302)
 17:   3871.45   0.011579   58.51  0.000933  (-0.025321 -0.011431 -0.012708)

* The epsilon (eps) is given for a Dirac delta lineshape.
** The dipole moment derivative (T) already includes vibrational overlap.

The first frequency considered to be a vibration is 7
The total number of vibrations considered is 11


--------------------------
THERMOCHEMISTRY AT 298.15K
--------------------------

Temperature         ...   298.15 K
Pressure            ...     1.00 atm
Total Mass          ...    36.03 AMU
Quasi RRHO          ...     True
Cut-Off Frequency   ...     1.00 cm^-1

Throughout the following assumptions are being made:
  (1) The electronic state is orbitally nondegenerate
  (2) There are no thermally accessible electronically excited states
  (3) Hindered rotations indicated by low frequency modes are not
      treated as such but are treated as vibrations and this may
      cause some error
  (4) All equations used are the standard statistical mechanics
      equations for an ideal gas
  (5) All vibrations are strictly harmonic

freq.     131.94  E(vib)   ...       0.42 
freq.     181.05  E(vib)   ...       0.37 
freq.     216.01  E(vib)   ...       0.34 
freq.     427.18  E(vib)   ...       0.18 
freq.     683.03  E(vib)   ...       0.08 
freq.    1630.94  E(vib)   ...       0.00 
freq.    1667.80  E(vib)   ...       0.00 
freq.    3676.64  E(vib)   ...       0.00 
freq.    3779.22  E(vib)   ...       0.00 
freq.    3851.96  E(vib)   ...       0.00 
freq.    3871.45  E(vib)   ...       0.00 

------------
INNER ENERGY
------------

The inner energy is: U= E(el) + E(ZPE) + E(vib) + E(rot) + E(trans)
    E(el)   - is the total energy from the electronic structure calculation
              = E(kin-el) + E(nuc-el) + E(el-el) + E(nuc-nuc)
    E(ZPE)  - the the zero temperature vibrational energy from the frequency calculation
    E(vib)  - the the finite temperature correction to E(ZPE) due to population
              of excited vibrational states
    E(rot)  - is the rotational thermal energy
    E(trans)- is the translational thermal energy

Summary of contributions to the inner energy U:
Electronic energy                ...   -152.65580588 Eh
Zero point energy                ...      0.04583035 Eh      28.76 kcal/mol
Thermal vibrational correction   ...      0.00221127 Eh       1.39 kcal/mol
Thermal rotational correction    ...      0.00141627 Eh       0.89 kcal/mol
Thermal translational correction ...      0.00141627 Eh       0.89 kcal/mol
-----------------------------------------------------------------------
Total thermal energy                   -152.60493172 Eh


Summary of corrections to the electronic energy:
(perhaps to be used in another calculation)
Total thermal correction                  0.00504382 Eh       3.17 kcal/mol
Non-thermal (ZPE) correction              0.04583035 Eh      28.76 kcal/mol
-----------------------------------------------------------------------
Total correction                          0.05087417 Eh      31.92 kcal/mol


--------
ENTHALPY
--------

The enthalpy is H = U + kB*T
                kB is Boltzmann's constant
Total thermal energy              ...   -152.60493172 Eh 
Thermal Enthalpy correction       ...      0.00094421 Eh       0.59 kcal/mol
-----------------------------------------------------------------------
Total Enthalpy                    ...   -152.60398751 Eh


Note: Only C1 symmetry has been detected, increase convergence thresholds 
      if your molecule has a higher symmetry. Symmetry factor of 1.0 is   
      used for the rotational entropy correction. 
 

Note: Rotational entropy computed according to Herzberg 
Infrared and Raman Spectra, Chapter V,1, Van Nostrand Reinhold, 1945 
Point Group:  C1, Symmetry Number:   1  
Rotational constants in cm-1:     6.631652     0.223818     0.223209 

Vibrational entropy computed according to the QRRHO of S. Grimme
Chem.Eur.J. 2012 18 9955 using a reference frequency of 100.0 cm-1


-------
ENTROPY
-------

The entropy contributions are T*S = T*(S(el)+S(vib)+S(rot)+S(trans))
     S(el)   - electronic entropy
     S(vib)  - vibrational entropy
     S(rot)  - rotational entropy
     S(trans)- translational entropy
The entropies will be listed as multiplied by the temperature to get
units of energy

Electronic entropy                ...      0.00000000 Eh      0.00 kcal/mol
Vibrational entropy               ...      0.00396831 Eh      2.49 kcal/mol
Rotational entropy                ...      0.01003233 Eh      6.30 kcal/mol
Translational entropy             ...      0.01742549 Eh     10.93 kcal/mol
-----------------------------------------------------------------------
Final entropy term                ...      0.03142613 Eh     19.72 kcal/mol

In case the symmetry of your molecule has not been determined correctly
or in case you have a reason to use a different symmetry number we print 
out the resulting rotational entropy values for sn=1,12:

 non-linear molecules -----------------------------------
|  sn= 1 | S(rot)=       0.01003233 Eh      6.30 kcal/mol|
|  sn= 2 | S(rot)=       0.00937788 Eh      5.88 kcal/mol|
|  sn= 3 | S(rot)=       0.00899505 Eh      5.64 kcal/mol|
|  sn= 4 | S(rot)=       0.00872342 Eh      5.47 kcal/mol|
|  sn= 5 | S(rot)=       0.00851273 Eh      5.34 kcal/mol|
|  sn= 6 | S(rot)=       0.00834059 Eh      5.23 kcal/mol|
|  sn= 7 | S(rot)=       0.00819504 Eh      5.14 kcal/mol|
|  sn= 8 | S(rot)=       0.00806897 Eh      5.06 kcal/mol|
|  sn= 9 | S(rot)=       0.00795776 Eh      4.99 kcal/mol|
|  sn=10 | S(rot)=       0.00785828 Eh      4.93 kcal/mol|
|  sn=11 | S(rot)=       0.00776829 Eh      4.87 kcal/mol|
|  sn=12 | S(rot)=       0.00768613 Eh      4.82 kcal/mol|
 linear molecules ---------------------------------------
|  Dinfh | S(rot)=       0.00674174 Eh      4.23 kcal/mol|
|  Cinfv | S(rot)=       0.00739620 Eh      4.64 kcal/mol|
 --------------------------------------------------------


-------------------
GIBBS FREE ENERGY
-------------------

The Gibbs free energy is G = H - T*S

Total enthalpy                    ...   -152.60398751 Eh 
Total entropy correction          ...     -0.03142613 Eh    -19.72 kcal/mol
-----------------------------------------------------------------------
Final Gibbs free energy         ...   -152.63541363 Eh

For completeness - the Gibbs free energy minus the electronic energy
G-E(el)                           ...      0.02039225 Eh     12.80 kcal/mol


Maximum memory used throughout the entire PROP-calculation: 10.3 MB
[1770538570.704694] [node068:2125561:0]     ucp_context.c:1234 UCX  WARN  transport 'ib' is not available, please use one or more of: mm, posix, self, shm, sm, sysv, tcp
[1770538570.723030] [node068:2125562:0]     ucp_context.c:1234 UCX  WARN  transport 'ib' is not available, please use one or more of: mm, posix, self, shm, sm, sysv, tcp
[1770538570.751165] [node068:2125565:0]     ucp_context.c:1234 UCX  WARN  transport 'ib' is not available, please use one or more of: mm, posix, self, shm, sm, sysv, tcp
[1770538570.776493] [node068:2125568:0]     ucp_context.c:1234 UCX  WARN  transport 'ib' is not available, please use one or more of: mm, posix, self, shm, sm, sysv, tcp

--------------------------------
SUGGESTED CITATIONS FOR THIS RUN
--------------------------------

Below you find a list of papers that are relevant to this ORCA run
We neither can nor want to force you to cite these papers, but we appreciate if you do
You receive ORCA, which is the product of decades of hard work by many enthusiastic individuals, for free
The only thing we kindly ask in return is that you cite our papers,
We deeply appreciate it, if you show your appreciation for ORCA by not just citing the generic ORCA reference.

Please note that relegating all ORCA citations to the supporting information does *not* help us.
SI sections are not indexed - citations you put there will not count into any citation statistics
But we need these citations in order to attract the funding resources that allow us to do what we are doing

Therefore, if you are a happy ORCA user, please consider citing a few of the papers listed below in the main body of your paper

In addition to the list printed below, the program has created the file h2o_dimer.bibtex that contains the list in bibtex format
You can import this file easily into all common literature databanks and citation aid programs


List of essential papers. We consider these as the minimum necessary citations

  1. Neese, F.
     Software update: the ORCA program system, version 6.0
     WIRES Comput. Molec. Sci. 2025 15(1), e70019
     doi.org/10.1002/wcms.7019

List of papers to cite with high priority. The work reported in these papers was absolutely
necessary for this run to complete.
Our perspective: the developers of density functionals and basis sets usually get cited in chemistry papers
Good! But without the algorithms to do something with them, the functionals or basis sets would not do anything.
Hence, in our opinion, the algorithm design and method developments papers are equally worthy of getting cited

  1. Neese, F.
     An improvement of the resolution of the identity approximation for the formation of the Coulomb matrix
     J. Comp. Chem. 2003 24(14), 1740-1747
     doi.org/10.1002/jcc.10318
  2. Neese, F.; Wennmohs, F.; Hansen, A.; Becker, U.
     Efficient, approximate and parallel Hartree-Fock and hybrid DFT calculations. A 'chain-of-spheres' algorithm for the Hartree-Fock exchange
     Chem. Phys. 2009 356(1-3), 98-109
     doi.org/10.1016/j.chemphys.2008.10.036
  3. Bykov, D.; Petrenko, T.; Izsak, R.; Kossmann, S.; Becker, U.; Valeev, E.; Neese, F.
     Efficient implementation of the analytic second derivatives of Hartree-Fock and hybrid DFT energies: a detailed analysis of different approximations
     Molec. Phys. 2015 113 , 1961-1977
     doi.org/10.1080/00268976.2015.1025114
  4. Helmich-Paris, B.; de Souza, B.; Neese, F.; Izsák, R.
     An improved chain of spheres for exchange algorithm
     J. Chem. Phys. 2021 155(10), 104109
     doi.org/10.1063/5.0058766
  5. Neese, F.
     The SHARK Integral Generation and Digestion System
     J. Comp. Chem. 2022 44(3), 381
     doi.org/10.1002/jcc.26942

List of suggested additional citations. These are papers that are important in the 'surrounding' of 
of this run, or papers that preceded the highly important papers. If you like your results we are grateful for a citation.

  1. Izsak, R.; Neese, F.
     An overlap fitted chain of spheres exchange method
     J. Chem. Phys. 2011 135 , 144105
     doi.org/10.1063/1.3646921
  2. Izsak, R.; Hansen, A.; Neese, F.
     The resolution of identity and chain of spheres approximations for the LPNO-CCSD singles Fock term
     Molec. Phys. 2012 110 , 2413-2417
     doi.org/10.1080/00268976.2012.687466
  3. Neese, F.
     The ORCA program system
     WIRES Comput. Molec. Sci. 2012 2(1), 73-78
     doi.org/10.1002/wcms.81
  4. Izsak, R.; Neese, F.; Klopper, W.
     Robust fitting techniques in the chain of spheres approximation to the Fock exchange: The role of the complementary space
     J. Chem. Phys. 2013 139 , 
     doi.org/10.1063/1.4819264
  5. Neese, F.
     Software update: the ORCA program system, version 4.0
     WIRES Comput. Molec. Sci. 2018 8(1), 1-6
     doi.org/10.1002/wcms.1327
  6. Neese, F.; Wennmohs, F.; Becker, U.; Riplinger, C.
     The ORCA quantum chemistry program package
     J. Chem. Phys. 2020 152(22), 224108
     doi.org/10.1063/5.0004608
  7. Neese, F.
     Software update: The ORCA program system—Version 5.0
     WIRES Comput. Molec. Sci. 2022 12(1), e1606
     doi.org/10.1002/wcms.1606

List of optional additional citations

  1. Neese, F.
     Approximate second-order SCF convergence for spin unrestricted wavefunctions
     Chem. Phys. Lett. 2000 325(1-3), 93-98
     doi.org/10.1016/s0009-2614(00)00662-x

Timings for individual modules:

Sum of individual times          ...      176.760 sec (=   2.946 min)
Startup calculation              ...       33.072 sec (=   0.551 min)  18.7 %
SCF iterations                   ...       71.986 sec (=   1.200 min)  40.7 %
Property integrals               ...       30.813 sec (=   0.514 min)  17.4 %
SCF Response                     ...        1.977 sec (=   0.033 min)   1.1 %
Property calculations            ...        3.733 sec (=   0.062 min)   2.1 %
SCF Gradient evaluation          ...       35.123 sec (=   0.585 min)  19.9 %
Geometry relaxation              ...        0.056 sec (=   0.001 min)   0.0 %
                             ****ORCA TERMINATED NORMALLY****
TOTAL RUN TIME: 0 days 0 hours 3 minutes 26 seconds 457 msec
