
                                 *****************
                                 * O   R   C   A *
                                 *****************

                                            #,                                       
                                            ###                                      
                                            ####                                     
                                            #####                                    
                                            ######                                   
                                           ########,                                 
                                     ,,################,,,,,                         
                               ,,#################################,,                 
                          ,,##########################################,,             
                       ,#########################################, ''#####,          
                    ,#############################################,,   '####,        
                  ,##################################################,,,,####,       
                ,###########''''           ''''###############################       
              ,#####''   ,,,,##########,,,,          '''####'''          '####       
            ,##' ,,,,###########################,,,                        '##       
           ' ,,###''''                  '''############,,,                           
         ,,##''                                '''############,,,,        ,,,,,,###''
      ,#''                                            '''#######################'''  
     '                                                          ''''####''''         
             ,#######,   #######,   ,#######,      ##                                
            ,#'     '#,  ##    ##  ,#'     '#,    #''#        ,####,    ,#,          
            ##       ##  ##   ,#'  ##            #'  '#       #'       ,# #          
            ##       ##  #######   ##           ,######,      #####,      #          
            '#,     ,#'  ##    ##  '#,     ,#' ,#      #,     #,   #      #          
             '#######'   ##     ##  '#######'  #'      '#     '####' #    #          



                #########################################################
                #                        -***-                          #
                #          Department of theory and spectroscopy        #
                #                                                       #
                #                      Frank Neese                      #
                #                                                       #
                #     Directorship, Architecture, Infrastructure        #
                #                    SHARK, DRIVERS                     #
                #        Core code/Algorithms in most modules           #
                #                                                       #
                #        Max Planck Institute fuer Kohlenforschung      #
                #                Kaiser Wilhelm Platz 1                 #
                #                 D-45470 Muelheim/Ruhr                 #
                #                      Germany                          #
                #                                                       #
                #                  All rights reserved                  #
                #                        -***-                          #
                #########################################################


                         Program Version 6.1.0  -  RELEASE   -
                                (GIT: $679e74b$)
                          ($2025-06-10 18:02:51 +0200$)


 With contributions from (in alphabetic order):
[Max-Planck-Institut fuer Kohlenforschung]                               
  Daniel Aravena         : Magnetic Suceptibility                        
  Michael Atanasov       : Ab Initio Ligand Field Theory (pilot matlab implementation)
  Alexander A. Auer      : GIAO ZORA, VPT2 properties, NMR spectrum      
  Ute Becker             : All parallelization in ORCA, NUMFREQ, NUMCALC 
  Giovanni Bistoni       : ED, misc. LED, open-shell LED, HFLD           
  Dmytro Bykov           : pre 5.0 version of the SCF Hessian            
  Marcos Casanova-Páez   : Triplet and SCS-CIS(D). UHF-(DLPNO)-IP/EA/STEOM-CCSD. UHF-CVS-IP/STEOM-CCSD   
  Vijay G. Chilkuri      : MRCI spin determinant printing, contributions to CSF-ICE 
  Pauline Colinet        : FMM embedding                                 
  Dipayan Datta          : RHF DLPNO-CCSD density                        
  Achintya Kumar Dutta   : EOM-CC, STEOM-CC                              
  Nicolas Foglia         : Exact transition moments, OPA infrastructure, MCD improvements    
  Dmitry Ganyushin       : Spin-Orbit,Spin-Spin,Magnetic field MRCI      
  Miquel Garcia-Rates    : C-PCM and meta-GGA Hessian, CCSD/C-PCM, Gaussian charge scheme 
  Tiago L. C. Gouveia    : GS-ROHF, GS-ROCIS                             
  Yang Guo               : DLPNO-NEVPT2, F12-NEVPT2, CIM, IAO-localization        
  Andreas Hansen         : Spin unrestricted coupled pair/coupled cluster methods 
  Ingolf Harden          : AUTO-CI MPn and infrastructure                
  Benjamin Helmich-Paris : MC-RPA, TRAH-(SCF,CASSCF), AVAS, COSX integrals, SCF dyn. polar., MC-PDFT, srDFT 
  Lee Huntington         : MR-EOM, pCC                                   
  Robert Izsak           : Overlap fitted RIJCOSX, COSX-SCS-MP3, EOM     
  Riya Kayal             : Wick's Theorem for AUTO-CI, AUTO-CI UHF-CCSDT 
  Emily Kempfer          : AUTO-CI RHF CISDT and CCSDT, approximate NEVPT4
  Christian Kollmar      : KDIIS, OOCD, Brueckner-CCSD(T), CCSD density, CASPT2, CASPT2-K, improved NEVPT2 
  Axel Koslowski         : Symmetry handling                             
  Simone Kossmann        : meta-GGA functionals, TD-DFT gradient, OOMP2, (MP2 Hessian; deprecated post 5.0) 
  Lucas Lang             : DCDCAS, Hyperfine gauge corrections, ICE-SOC+SSC
  Marvin Lechner         : AUTO-CI (C++ implementation), FIC-MRCC        
  Spencer Leger          : CASSCF response                               
  Dagmar Lenk            : GEPOL surface, SMD, ORCA-2-JSON               
  Dimitrios Liakos       : Extrapolation schemes; Compound Job, Property file
  Dimitrios Manganas     : Further ROCIS development; embedding schemes. LFT, Crystal Embedding 
  Dimitrios Pantazis     : SARC Basis sets                               
  Anastasios Papadopoulos: AUTO-CI, single reference methods and gradients 
  Taras Petrenko         : pre 6.0 DFT Hessian and TD-DFT gradient,  ECA, NRVS 
  Petra Pikulova         : Analytic Raman intensities                    
  Peter Pinski           : DLPNO-MP2, DLPNO-MP2 Gradient                 
  Shashank Vittal Rao    : ES-AILFT, MagRelax                            
  Christoph Reimann      : Effective Core Potentials                     
  Marius Retegan         : Local ZFS, SOC                                
  Christoph Riplinger    : Optimizer, TS searches, QM/MM, DLPNO-CCSD(T), (RO)-DLPNO pert. Triples 
  Michael Roemelt        : Original ROCIS implementation, recursive CI coupling coefficients
  Masaaki Saitow         : Open-shell DLPNO-CCSD energy and density      
  Barbara Sandhoefer     : DKH picture change effects                    
  Yorick L. A. Schmerwitz: GMF and freeze-and-release deltaSCF, NEB S-IDPP initial path                    
  Kantharuban Sivalingam : CASSCF convergence/infrastructure, NEVPT2, NEVPT3, NEVPT4(SD), FIC-MRCI and CEPA variants
  Bernardo de Souza      : ESD, SOC TD-DFT                               
  Georgi L. Stoychev     : AutoAux, RI-MP2 NMR, DLPNO-MP2 response, X2C  
  Van Anh Tran           : RI-MP2 g-tensors                              
  Willem Van den Heuvel  : Paramagnetic NMR                              
  Zikuan Wang            : NOTCH, Electric field optimization            
  Frank Wennmohs         : Technical directorship and infrastructure     
  Hang Xu                : AUTO-CI-Response properties                   
                                                                         
[FACCTs GmbH]                                                            
  Markus Bursch, Nicolas Foglia, Miquel Garcia-Rates, Ingolf Harden, Hagen Neugebauer, Anastasios Papadopoulos, 
  Christoph Riplinger, Bernardo de Souza, Georgi L. Stoychev                                                    
                                                                 
  APM, various basis sets, CI-OPT, improved COSX, DLPNO-Multilevel,           
  DOCKER, DRACO, updates on ESD, Fragmentator, GOAT, IRC, LR-CPCM, L-BFGS, MBIS, meta-GGA TD-DFT gradient, ML-optimized integration grids, 
  MM, NACMEs, nearIR, NEB, NEB-TS, NL-DFT gradient (VV10), 2- and 3-layer-ONIOM, interface openCOSMO-RS, QMMM,   
  Crystal-QMMM, RESP, rigid body optimization, SF, symmetry and pop. for TD-DFT, various functionals, SOLVATOR                                   
                                                                         
[Other institutions]                                                     
  V. Asgeirsson          : NEB                                           
  Christoph Bannwarth    : sTDA-DFT, sTD-DFT, PBEh-3c, B97-3c, D3        
  Giovanni Bistoni       : ETS/NOCV, ADLD/ADEX, COVALED                  
  Martin Brehm           : Molecular dynamics                            
  Ronald Cardenas        : ETS/NOCV                                      
  Martina Colucci        : COVALED                                       
  Sebastian Ehlert       : rSCAN, r2SCAN, r2SCAN-3c, D4, dhf basis sets  
  Marvin Friede          : D4 for Fr, Ra, Ac-Lr                          
  Lars Goerigk           : TD-DFT with DH, B97 family of functionals     
  Stefan Grimme          : VdW corrections, initial TS optimization, DFT functionals, gCP, sTDA/sTD-DF 
  Waldemar Hujo          : DFT-NL                                        
  H. Jonsson             : NEB                                           
  Holger Kruse           : gCP                                           
  Marcel Mueller         : wB97X-3c, vDZP basis set                      
  Hagen Neugebauer       : wr2SCAN, Native XTB                           
  Gianluca Regni         : ADLD/ADEX                                     
  Tobias Risthaus        : pre 6.0 range-separated hybrid DFT and stability analysis
  Lukas Wittmann         : regularized MP2, r2SCAN double-hybrids, wr2SCAN        
                                                                         
We gratefully acknowledge several colleagues who have allowed us to      
interface, adapt or use parts of their codes:                            
  Ed Valeev, F. Pavosevic, A. Kumar             : LibInt (2-el integral package), F12 methods 
  Garnet Chan, S. Sharma, J. Yang, R. Olivares  : DMRG                   
  Ulf Ekstrom                                   : XCFun DFT Library      
  Mihaly Kallay                                 : mrcc  (arbitrary order and MRCC methods)
  Frank Weinhold                                : gennbo (NPA and NBO analysis)           
  Simon Mueller                                 : openCOSMO-RS                            
  Christopher J. Cramer and Donald G. Truhlar   : smd solvation model                     
  S Lehtola, MJT Oliveira, MAL Marques          : LibXC Library                           
  Liviu Ungur et al                             : ANISO software                          


 Your calculation uses the libint2 library for the computation of 2-el integrals
 For citations please refer to: http://libint.valeyev.net

 Your ORCA version has been built with support for libXC version: 7.0.0
 For citations please refer to: https://libxc.gitlab.io

 This ORCA versions uses:
   CBLAS   interface :  Fast vector & matrix operations
   LAPACKE interface :  Fast linear algebra routines
   SCALAPACK package :  Parallel linear algebra routines
   Shared memory     :  Shared parallel matrices
   BLAS/LAPACK       :  OpenBLAS 0.3.29  USE64BITINT DYNAMIC_ARCH NO_AFFINITY Haswell SINGLE_THREADED
        Core in use  :  Haswell
   Copyright (c) 2011-2014, The OpenBLAS Project


  ***********************************
  * Starting time: Sun Feb  8 09:47:54 2026
  * Host name:     node213.cluster
  * Process ID:    2934824
  * Working dir.:  /data/scratch/56927712
  ***********************************

NOTE: MaxCore=1500 MB was set to SCF,MP2,MDCI,CIPSI,MRCI,RASCI and CIS
      => If you want to overwrite this, your respective input block should be placed after the MaxCore statement
Warning: RI is on but no J-basis has been assigned. Assigning Def2/J (nothing to worry about!)
================================================================================

----- Orbital basis set information -----
Your calculation utilizes the basis: def2-SVP
   F. Weigend and R. Ahlrichs, Phys. Chem. Chem. Phys. 7, 3297 (2005).

----- AuxJ basis set information -----
Your calculation utilizes the auxiliary basis: def2/J
   H-Rn: F. Weigend, Phys. Chem. Chem. Phys. 8, 1057 (2006).
   Fr-Lr: K. Eichkorn, F. Weigend, O. Treutler, R. Ahlrichs; Theor. Chem. Acc. 97, 119 (1997).

================================================================================
                                        WARNINGS
                       Please study these warnings very carefully!
================================================================================


WARNING: Geometry Optimization
  ===> : Switching off AutoStart
         For restart on a previous wavefunction, please use MOREAD

================================================================================
                                       INPUT FILE
================================================================================
NAME = IPA_G.inp
|  1> ! b3lyp opt freq
|  2>  %pal 
|  3>  nprocs 4 
|  4>  end 
|  5>  
|  6>  %maxcore 1500 
|  7> 
|  8> * XYZ 0 1
|  9> C     -2.4965386872   -0.8091378971    1.1964596283
| 10> O     -1.1054132637   -0.8910034447    0.9028931745
| 11> C     -3.1783475114   -2.0393629682    0.6192423668
| 12> H     -0.6781867681   -0.1068531434    1.2877755307
| 13> H     -2.9168550476    0.5019182593   -0.4809509422
| 14> C     -3.0620548308    0.4731639486    0.6045784363
| 15> H     -4.1306141496    0.5721895320    0.8192797958
| 16> H     -3.0162030841   -2.1076792275   -0.4623502821
| 17> H     -2.6137156649   -0.8024179165    2.2856309042
| 18> H     -2.5423431844    1.3461613346    1.0143811714
| 19> H     -4.2551330833   -2.0267722905    0.8133832439
| 20> H     -2.7554873473   -2.9499086340    1.0574565365
| 21> *
| 22> 
| 23>                          ****END OF INPUT****
================================================================================

                       *****************************
                       * Geometry Optimization Run *
                       *****************************

Geometry optimization settings:
Update method            Update   .... BFGS
Choice of coordinates    CoordSys .... (2022) Redundant Internals
Initial Hessian          InHess   .... Almloef's Model
Max. no of cycles        MaxIter  .... 50

Convergence Tolerances:
Energy Change            TolE     ....  5.0000e-06 Eh
Max. Gradient            TolMAXG  ....  3.0000e-04 Eh/bohr
RMS Gradient             TolRMSG  ....  1.0000e-04 Eh/bohr
Max. Displacement        TolMAXD  ....  4.0000e-03 bohr
RMS Displacement         TolRMSD  ....  2.0000e-03 bohr
Strict Convergence                .... False

------------------------------------------------------------------------------
                        ORCA OPTIMIZATION COORDINATE SETUP
------------------------------------------------------------------------------

The optimization will be done in redundant internal coordinates (2022)
Making redundant internal coordinates   ...  (2022 redundants) done
Evaluating the initial hessian          ...  (Almloef) done
Evaluating the coordinates              ...  done
Calculating the B-matrix                .... done
Calculating the G-matrix                .... done
The number of degrees of freedom        ....   45

    -----------------------------------------------------------------
                    Redundant Internal Coordinates


    -----------------------------------------------------------------
         Definition                    Initial Value    Approx d2E/dq
    -----------------------------------------------------------------
      1. B(O   1,C   0)                  1.4241         0.493676   
      2. B(C   2,C   0)                  1.5204         0.387040   
      3. B(H   3,O   1)                  0.9724         0.496814   
      4. B(C   5,H   4)                  1.0956         0.352800   
      5. B(C   5,C   0)                  1.5213         0.385672   
      6. B(H   6,C   5)                  1.0944         0.354320   
      7. B(H   7,C   2)                  1.0958         0.352495   
      8. B(H   8,C   0)                  1.0955         0.352927   
      9. B(H   9,C   5)                  1.0955         0.352872   
     10. B(H  10,C   2)                  1.0942         0.354561   
     11. B(H  11,C   2)                  1.0954         0.353006   
     12. A(O   1,C   0,C   2)          108.2573         0.381147   
     13. A(O   1,C   0,H   8)          108.0467         0.336453   
     14. A(O   1,C   0,C   5)          109.3518         0.380913   
     15. A(C   5,C   0,H   8)          109.9918         0.324945   
     16. A(C   2,C   0,C   5)          111.5692         0.367561   
     17. A(C   2,C   0,H   8)          109.5402         0.325135   
     18. A(C   0,O   1,H   3)          107.5314         0.353250   
     19. A(C   0,C   2,H  10)          111.3852         0.325382   
     20. A(H  10,C   2,H  11)          108.5700         0.289229   
     21. A(H   7,C   2,H  11)          106.6134         0.288964   
     22. A(C   0,C   2,H  11)          110.3413         0.325147   
     23. A(H   7,C   2,H  10)          108.7506         0.289163   
     24. A(C   0,C   2,H   7)          111.0279         0.325069   
     25. A(H   6,C   5,H   9)          108.5241         0.289181   
     26. A(H   4,C   5,H   6)          108.7482         0.289172   
     27. A(H   4,C   5,H   9)          106.6697         0.288986   
     28. A(C   0,C   5,H   9)          110.4749         0.324937   
     29. A(C   0,C   5,H   6)          111.2777         0.325156   
     30. A(C   0,C   5,H   4)          110.9986         0.324926   
     31. D(H   3,O   1,C   0,C   5)     59.0854         0.019253   
     32. D(H   3,O   1,C   0,H   8)    -60.6198         0.019253   
     33. D(H   3,O   1,C   0,C   2)   -179.1686         0.019253   
     34. D(H   7,C   2,C   0,H   8)   -176.0313         0.011918   
     35. D(H   7,C   2,C   0,C   5)     61.9367         0.011918   
     36. D(H  10,C   2,C   0,C   5)    -59.4215         0.011918   
     37. D(H   7,C   2,C   0,O   1)    -58.4356         0.011918   
     38. D(H  10,C   2,C   0,H   8)     62.6105         0.011918   
     39. D(H  10,C   2,C   0,O   1)   -179.7937         0.011918   
     40. D(H   6,C   5,C   0,C   2)     60.7393         0.011837   
     41. D(H   6,C   5,C   0,O   1)   -179.5327         0.011837   
     42. D(H   4,C   5,C   0,H   8)    177.7069         0.011837   
     43. D(H   4,C   5,C   0,C   2)    -60.5218         0.011837   
     44. D(H   6,C   5,C   0,H   8)    -61.0320         0.011837   
     45. D(H   4,C   5,C   0,O   1)     59.2062         0.011837   
    -----------------------------------------------------------------

Number of atoms                         .... 12
Number of degrees of freedom            .... 45


         *************************************************************
         *                GEOMETRY OPTIMIZATION CYCLE   1            *
         *************************************************************
---------------------------------
CARTESIAN COORDINATES (ANGSTROEM)
---------------------------------
  C     -2.496539   -0.809138    1.196460
  O     -1.105413   -0.891003    0.902893
  C     -3.178348   -2.039363    0.619242
  H     -0.678187   -0.106853    1.287776
  H     -2.916855    0.501918   -0.480951
  C     -3.062055    0.473164    0.604578
  H     -4.130614    0.572190    0.819280
  H     -3.016203   -2.107679   -0.462350
  H     -2.613716   -0.802418    2.285631
  H     -2.542343    1.346161    1.014381
  H     -4.255133   -2.026772    0.813383
  H     -2.755487   -2.949909    1.057457

----------------------------
CARTESIAN COORDINATES (A.U.)
----------------------------
  NO LB      ZA    FRAG     MASS         X           Y           Z
   0 C     6.0000    0    12.011   -4.717774   -1.529049    2.260981
   1 O     8.0000    0    15.999   -2.088928   -1.683752    1.706221
   2 C     6.0000    0    12.011   -6.006206   -3.853837    1.170198
   3 H     1.0000    0     1.008   -1.281587   -0.201923    2.433543
   4 H     1.0000    0     1.008   -5.512057    0.948488   -0.908866
   5 C     6.0000    0    12.011   -5.786445    0.894150    1.142488
   6 H     1.0000    0     1.008   -7.805730    1.081282    1.548214
   7 H     1.0000    0     1.008   -5.699798   -3.982937   -0.873715
   8 H     1.0000    0     1.008   -4.939207   -1.516350    4.319216
   9 H     1.0000    0     1.008   -4.804332    2.543876    1.916903
  10 H     1.0000    0     1.008   -8.041036   -3.830045    1.537072
  11 H     1.0000    0     1.008   -5.207116   -5.574519    1.998303

--------------------------------
INTERNAL COORDINATES (ANGSTROEM)
--------------------------------
 C      0   0   0     0.000000000000     0.00000000     0.00000000
 O      1   0   0     1.424118385033     0.00000000     0.00000000
 C      1   2   0     1.520360735251   108.25732521     0.00000000
 H      2   1   3     0.972393234081   107.53140645   180.83140708
 H      1   2   3     2.170078411044    93.70330422   262.19052646
 C      5   1   2     1.095574652414    40.88091434   234.30933772
 H      6   5   1     1.094404750416   108.74824421   237.26425031
 H      3   1   2     1.095810469353   111.02785406   301.56442203
 H      1   2   3     1.095476914630   108.04666201   118.54877247
 H      6   5   1     1.095519471786   106.66968201   120.40120795
 H      3   1   2     1.094219526959   111.38516688   180.20629754
 H      3   1   2     1.095415805261   110.34128924    59.54679227

---------------------------
INTERNAL COORDINATES (A.U.)
---------------------------
 C      0   0   0     0.000000000000     0.00000000     0.00000000
 O      1   0   0     2.691193729994     0.00000000     0.00000000
 C      1   2   0     2.873065414392   108.25732521     0.00000000
 H      2   1   3     1.837556906890   107.53140645   180.83140708
 H      1   2   3     4.100853886008    93.70330422   262.19052646
 C      5   1   2     2.070336052328    40.88091434   234.30933772
 H      6   5   1     2.068125257949   108.74824421   237.26425031
 H      3   1   2     2.070781681761   111.02785406   301.56442203
 H      1   2   3     2.070151354684   108.04666201   118.54877247
 H      6   5   1     2.070231776053   106.66968201   120.40120795
 H      3   1   2     2.067775236341   111.38516688   180.20629754
 H      3   1   2     2.070035874712   110.34128924    59.54679227

---------------------
BASIS SET INFORMATION
---------------------
There are 3 groups of distinct atoms

 Group   1 Type C   : 7s4p1d contracted to 3s2p1d pattern {511/31/1}
 Group   2 Type O   : 7s4p1d contracted to 3s2p1d pattern {511/31/1}
 Group   3 Type H   : 4s1p contracted to 2s1p pattern {31/1}

Atom   0C    basis set group =>   1
Atom   1O    basis set group =>   2
Atom   2C    basis set group =>   1
Atom   3H    basis set group =>   3
Atom   4H    basis set group =>   3
Atom   5C    basis set group =>   1
Atom   6H    basis set group =>   3
Atom   7H    basis set group =>   3
Atom   8H    basis set group =>   3
Atom   9H    basis set group =>   3
Atom  10H    basis set group =>   3
Atom  11H    basis set group =>   3
---------------------------------
AUXILIARY/J BASIS SET INFORMATION
---------------------------------
There are 3 groups of distinct atoms

 Group   1 Type C   : 12s5p4d2f1g contracted to 6s4p3d1f1g pattern {711111/2111/211/2/1}
 Group   2 Type O   : 12s5p4d2f1g contracted to 6s4p3d1f1g pattern {711111/2111/211/2/1}
 Group   3 Type H   : 5s2p1d contracted to 3s1p1d pattern {311/2/1}

Atom   0C    basis set group =>   1
Atom   1O    basis set group =>   2
Atom   2C    basis set group =>   1
Atom   3H    basis set group =>   3
Atom   4H    basis set group =>   3
Atom   5C    basis set group =>   1
Atom   6H    basis set group =>   3
Atom   7H    basis set group =>   3
Atom   8H    basis set group =>   3
Atom   9H    basis set group =>   3
Atom  10H    basis set group =>   3
Atom  11H    basis set group =>   3
[1770540474.786184] [node213:2934838:0]     ucp_context.c:1234 UCX  WARN  transport 'ib' is not available, please use one or more of: mm, posix, self, shm, sm, sysv, tcp
[1770540474.846596] [node213:2934842:0]     ucp_context.c:1234 UCX  WARN  transport 'ib' is not available, please use one or more of: mm, posix, self, shm, sm, sysv, tcp
[1770540474.914847] [node213:2934847:0]     ucp_context.c:1234 UCX  WARN  transport 'ib' is not available, please use one or more of: mm, posix, self, shm, sm, sysv, tcp
[1770540474.983538] [node213:2934852:0]     ucp_context.c:1234 UCX  WARN  transport 'ib' is not available, please use one or more of: mm, posix, self, shm, sm, sysv, tcp


           ************************************************************
           *        Program running with 4 parallel MPI-processes     *
           *              working on a common directory               *
           ************************************************************
------------------------------------------------------------------------------
                             ORCA STARTUP CALCULATIONS
                           -- RI-GTO INTEGRALS CHOSEN --
------------------------------------------------------------------------------
------------------------------------------------------------------------------
                   ___                                                        
                  /   \      - P O W E R E D   B Y -                         
                 /     \                                                     
                 |  |  |   _    _      __       _____    __    __             
                 |  |  |  | |  | |    /  \     |  _  \  |  |  /  |          
                  \  \/   | |  | |   /    \    | | | |  |  | /  /          
                 / \  \   | |__| |  /  /\  \   | |_| |  |  |/  /          
                |  |  |   |  __  | /  /__\  \  |    /   |      \           
                |  |  |   | |  | | |   __   |  |    \   |  |\   \          
                \     /   | |  | | |  |  |  |  | |\  \  |  | \   \       
                 \___/    |_|  |_| |__|  |__|  |_| \__\ |__|  \__/        
                                                                              
                      - O R C A' S   B I G   F R I E N D -                    
                                      &                                       
                       - I N T E G R A L  F E E D E R -                       
                                                                              
 v1 FN, 2020, v2 2021, v3 2022-2024                                           
------------------------------------------------------------------------------


----------------------
SHARK INTEGRAL PACKAGE
----------------------

Number of atoms                             ...     12
Number of basis functions                   ...     96
Number of shells                            ...     48
Maximum angular momentum                    ...      2
Integral batch strategy                     ... SHARK/LIBINT Hybrid
RI-J (if used) integral strategy            ... SPLIT-RIJ (Revised 2003 algorithm where possible)
Printlevel                                  ...      1
Contraction scheme used                     ... SEGMENTED contraction
Prescreening option                         ... SCHWARTZ
   Thresh                                   ... 2.500e-11
   Tcut                                     ... 2.500e-12
   Tpresel                                  ... 2.500e-12 
Coulomb Range Separation                    ... NOT USED
Exchange Range Separation                   ... NOT USED
Multipole approximations                    ... NOT USED
Finite Nucleus Model                        ... NOT USED
CABS basis                                  ... NOT available
Auxiliary Coulomb fitting basis             ... AVAILABLE
   # of basis functions in Aux-J            ...    284
   # of shells in Aux-J                     ...    100
   Maximum angular momentum in Aux-J        ...      4
Auxiliary J/K fitting basis                 ... NOT available
Auxiliary Correlation fitting basis         ... NOT available
Auxiliary 'external' fitting basis          ... NOT available

Checking pre-screening integrals            ... done (  0.0 sec) Dimension = 48
   => SHARK Basis and OBASIS are compatible. Storing Pre-screening
Shell pair information
Shell pair cut-off parameter TPreSel        ...   2.5e-12
Total number of shell pairs                 ...      1176
Shell pairs after pre-screening             ...      1169
Total number of primitive shell pairs       ...      3992
Primitive shell pairs kept                  ...      3300
          la=0 lb=0:    403 shell pairs
          la=1 lb=0:    444 shell pairs
          la=1 lb=1:    136 shell pairs
          la=2 lb=0:    112 shell pairs
          la=2 lb=1:     64 shell pairs
          la=2 lb=2:     10 shell pairs

Checking whether 4 symmetric matrices of dimension 96 fit in memory
:Max Core in MB      =   1500.00
 MB in use           =      4.77
 MB left             =   1495.23
 MB needed           =      0.14
 Data fit in memory  = YES
Calculating RI/J V-Matrix + Cholesky decomp.... done (  0.0 sec)
Calculating Nuclear repulsion               ... done (  0.0 sec) ENN=    134.888338822820 Eh

Diagonalization of the overlap matrix:
Smallest eigenvalue                        ... 2.381e-03
Time for diagonalization                   ...    0.001 sec
Threshold for overlap eigenvalues          ... 1.000e-07
Number of eigenvalues below threshold      ... 0
Time for construction of square roots      ...    0.000 sec
Total time needed                          ...    0.002 sec

-------------------
DFT GRID GENERATION
-------------------

General Integration Accuracy     IntAcc      ... 4.388
Radial Grid Type                 RadialGrid  ... OptM3 with GC (2021)
Angular Grid (max. ang.)         AngularGrid ... 4 (Lebedev-302)
Angular grid pruning method      GridPruning ... 4 (adaptive)
Weight generation scheme         WeightScheme... mBecke (2022)
Basis function cutoff            BFCut       ... 1.0000e-11
Integration weight cutoff        WCut        ... 1.0000e-14
Partially contracted basis set               ... off
Rotationally invariant grid construction     ... off
Angular grids for H and He will be reduced by one unit

Total number of grid points                  ...    50049
Total number of batches                      ...      788
Average number of points per batch           ...       63
Average number of grid points per atom       ...     4171

--------------------
COSX GRID GENERATION
--------------------

GRIDX 1
-------
General Integration Accuracy     IntAcc      ... 3.816
Radial Grid Type                 RadialGrid  ... OptM3 with GC (2021)
Angular Grid (max. ang.)         AngularGrid ... 1 (Lebedev-50)
Angular grid pruning method      GridPruning ... 4 (adaptive)
Weight generation scheme         WeightScheme... mBecke (2022)
Basis function cutoff            BFCut       ... 1.0000e-11
Integration weight cutoff        WCut        ... 1.0000e-14
Partially contracted basis set               ... on
Rotationally invariant grid construction     ... off
Angular grids for H and He will be reduced by one unit

Total number of grid points                  ...     6461
Total number of batches                      ...       58
Average number of points per batch           ...      111
Average number of grid points per atom       ...      538
UseSFitting                                  ... on

GRIDX 2
-------
General Integration Accuracy     IntAcc      ... 4.020
Radial Grid Type                 RadialGrid  ... OptM3 with GC (2021)
Angular Grid (max. ang.)         AngularGrid ... 2 (Lebedev-110)
Angular grid pruning method      GridPruning ... 4 (adaptive)
Weight generation scheme         WeightScheme... mBecke (2022)
Basis function cutoff            BFCut       ... 1.0000e-11
Integration weight cutoff        WCut        ... 1.0000e-14
Partially contracted basis set               ... on
Rotationally invariant grid construction     ... off
Angular grids for H and He will be reduced by one unit

Total number of grid points                  ...    13462
Total number of batches                      ...      110
Average number of points per batch           ...      122
Average number of grid points per atom       ...     1122
UseSFitting                                  ... on

GRIDX 3
-------
General Integration Accuracy     IntAcc      ... 4.338
Radial Grid Type                 RadialGrid  ... OptM3 with GC (2021)
Angular Grid (max. ang.)         AngularGrid ... 3 (Lebedev-194)
Angular grid pruning method      GridPruning ... 4 (adaptive)
Weight generation scheme         WeightScheme... mBecke (2022)
Basis function cutoff            BFCut       ... 1.0000e-11
Integration weight cutoff        WCut        ... 1.0000e-14
Partially contracted basis set               ... on
Rotationally invariant grid construction     ... off
Angular grids for H and He will be reduced by one unit

Total number of grid points                  ...    29491
Total number of batches                      ...      238
Average number of points per batch           ...      123
Average number of grid points per atom       ...     2458
UseSFitting                                  ... on
Grids setup in   0.4 sec
Initializing property integral containers    ... done (  0.0 sec)

SHARK setup successfully completed in   0.5 seconds

Maximum memory used throughout the entire STARTUP-calculation: 15.3 MB
[1770540476.938541] [node213:2934889:0]     ucp_context.c:1234 UCX  WARN  transport 'ib' is not available, please use one or more of: mm, posix, self, shm, sm, sysv, tcp
[1770540476.995779] [node213:2934890:0]     ucp_context.c:1234 UCX  WARN  transport 'ib' is not available, please use one or more of: mm, posix, self, shm, sm, sysv, tcp
[1770540477.063625] [node213:2934893:0]     ucp_context.c:1234 UCX  WARN  transport 'ib' is not available, please use one or more of: mm, posix, self, shm, sm, sysv, tcp
[1770540477.132228] [node213:2934896:0]     ucp_context.c:1234 UCX  WARN  transport 'ib' is not available, please use one or more of: mm, posix, self, shm, sm, sysv, tcp


           ************************************************************
           *        Program running with 4 parallel MPI-processes     *
           *              working on a common directory               *
           ************************************************************
-------------------------------------------------------------------------------
                                 ORCA GUESS
                   Start orbitals & Density for SCF / CASSCF
-------------------------------------------------------------------------------

------------
SCF SETTINGS
------------
Hamiltonian:
 Density Functional     Method          .... DFT(GTOs)
 Exchange Functional    Exchange        .... B88
   X-Alpha parameter    XAlpha          ....  0.666667
   Becke's b parameter  XBeta           ....  0.004200
 Correlation Functional Correlation     .... LYP
 LDA part of GGA corr.  LDAOpt          .... VWN-5
 Gradients option       PostSCFGGA      .... off
 Hybrid DFT is turned on
   Fraction HF Exchange ScalHFX         ....  0.200000
   Scaling of DF-GGA-X  ScalDFX         ....  0.720000
   Scaling of DF-GGA-C  ScalDFC         ....  0.810000
   Scaling of DF-LDA-C  ScalLDAC        ....  1.000000
   Perturbative correction              ....  0.000000
   NL short-range parameter             ....  4.800000
 RI-approximation to the Coulomb term is turned on
   Number of AuxJ basis functions       .... 284
   RIJ-COSX (HFX calculated with COS-X)).... on


General Settings:
 Integral files         IntName         .... IPA_G
 Hartree-Fock type      HFTyp           .... RHF
 Total Charge           Charge          ....    0
 Multiplicity           Mult            ....    1
 Number of Electrons    NEL             ....   34
 Basis Dimension        Dim             ....   96
 Nuclear Repulsion      ENuc            ....    134.8883388228 Eh

Convergence Acceleration:
 AO-DIIS                CNVDIIS         .... on
   Start iteration      DIISMaxIt       ....    12
   Startup error        DIISStart       ....  0.200000
   # of expansion vecs  DIISMaxEq       ....     5
   Bias factor          DIISBfac        ....   1.050
   Max. coefficient     DIISMaxC        ....  10.000
 MO-DIIS                CNVKDIIS        .... off
 Trust-Rad. Augm. Hess. CNVTRAH         .... auto
   Auto Start mean grad. ratio tolernc. ....  1.125000
   Auto Start start iteration           ....    50
   Auto Start num. interpolation iter.  ....    10
   Max. Number of Micro iterations      ....    24
   Max. Number of Macro iterations      .... Maxiter - #DIIS iter
   Number of Davidson start vectors     ....     2
   Converg. threshold    (grad. norm)   ....   1.000e-05
   Grad. Scal. Fac. for Micro threshold ....   0.100
   Minimum threshold for Micro iter.    ....   1.000e-02
   NR start threshold (gradient norm)   ....   1.000e-04
   Initial trust radius                 ....   0.400
   Minimum AH scaling param. (alpha)    ....   1.000
   Maximum AH scaling param. (alpha)    .... 1000.000
   Quad. conv. algorithm                .... NR
   White noise on init. David. guess    .... on
   Maximum white noise                  ....   0.010
   Pseudo random numbers                .... off
   Inactive MOs                         .... canonical
   Orbital update algorithm             .... Taylor
   Preconditioner                       .... Diag
   Full preconditioner red. dimension   ....   250
 SOSCF                 CNVSOSCF           .... on
   Start iteration     SOSCFMaxIt         ....   150
   Startup grad/error  SOSCFStart         ....  0.003300
   Hessian update      SOSCFHessUp        .... L-BFGS
   Autom. constraints  SOSCFAutoConstrain .... off
 Level Shifting         CNVShift        .... on
   Level shift para.    LevelShift      ....    0.2500
   Turn off err/grad.   ShiftErr        ....    0.0010
 Zerner damping         CNVZerner       .... off
 Static damping         CNVDamp         .... on
   Fraction old density DampFac         ....    0.7000
   Max. Damping (<1)    DampMax         ....    0.9800
   Min. Damping (>=0)   DampMin         ....    0.0000
   Turn off err/grad.   DampErr         ....    0.1000

SCF Procedure:
 Maximum # iterations   MaxIter         ....   125
 SCF integral mode      SCFMode         .... Direct
   Integral package                     .... SHARK and LIBINT hybrid scheme
 Reset frequency        DirectResetFreq ....    20
 Integral Threshold     Thresh          ....  2.500e-11 Eh
 Primitive CutOff       TCut            ....  2.500e-12 Eh

Convergence Tolerance:
 Convergence Check Mode ConvCheckMode   .... Total+1el-Energy
 Convergence forced     ConvForced      .... 0
 Energy Change          TolE            ....  1.000e-08 Eh
 1-El. energy change                    ....  1.000e-05 Eh
 Orbital Gradient       TolG            ....  1.000e-05
 Orbital Rotation angle TolX            ....  1.000e-05
 DIIS Error             TolErr          ....  5.000e-07

------------------------------
INITIAL GUESS: MODEL POTENTIAL
------------------------------
Loading Hartree-Fock densities                     ... done
Calculating cut-offs                               ... done
Initializing the effective Hamiltonian             ... done
Setting up the integral package (SHARK)            ... done
Starting the Coulomb interaction                   ... done (   0.0 sec)
Making the grid                                    ... done (   0.1 sec)
Mapping shells                                     ... done
Starting the XC term evaluation                    ... done (   0.0 sec)
  promolecular density results
     # of electrons  =     33.999081807
     EX              =    -25.994137678
     EC              =     -1.104865921
     EX+EC           =    -27.099003599
Transforming the Hamiltonian                       ... done (   0.0 sec)
Diagonalizing the Hamiltonian                      ... done (   0.0 sec)
Back transforming the eigenvectors                 ... done (   0.0 sec)
Now organizing SCF variables                       ... done
                      ------------------
                      INITIAL GUESS DONE (   0.1 sec)
                      ------------------
             **** ENERGY FILE WAS UPDATED (IPA_G.en.tmp) ****
Finished Guess after   0.7 sec
Maximum memory used throughout the entire GUESS-calculation: 7.2 MB
[1770540478.738419] [node213:2934925:0]     ucp_context.c:1234 UCX  WARN  transport 'ib' is not available, please use one or more of: mm, posix, self, shm, sm, sysv, tcp
[1770540478.794984] [node213:2934927:0]     ucp_context.c:1234 UCX  WARN  transport 'ib' is not available, please use one or more of: mm, posix, self, shm, sm, sysv, tcp
[1770540478.863414] [node213:2934931:0]     ucp_context.c:1234 UCX  WARN  transport 'ib' is not available, please use one or more of: mm, posix, self, shm, sm, sysv, tcp
[1770540478.932577] [node213:2934935:0]     ucp_context.c:1234 UCX  WARN  transport 'ib' is not available, please use one or more of: mm, posix, self, shm, sm, sysv, tcp


           ************************************************************
           *        Program running with 4 parallel MPI-processes     *
           *              working on a common directory               *
           ************************************************************

-------------------------------------------------------------------------------------------
                                      ORCA LEAN-SCF
                              memory conserving SCF solver
-------------------------------------------------------------------------------------------

----------------------------------------D-I-I-S--------------------------------------------
Iteration    Energy (Eh)           Delta-E    RMSDP     MaxDP     DIISErr   Damp  Time(sec)
-------------------------------------------------------------------------------------------
               ***  Starting incremental Fock matrix formation  ***
    1    -193.9153260061637241     0.00e+00  1.00e-02  8.02e-02  2.49e-01  0.700   0.4
    2    -193.9971509355335968    -8.18e-02  6.88e-03  4.94e-02  1.06e-01  0.700   0.3
                               ***Turning on AO-DIIS***
    3    -194.0291132443802837    -3.20e-02  2.55e-03  1.51e-02  3.49e-02  0.700   0.3
    4    -194.0477898403076153    -1.87e-02  4.02e-03  2.10e-02  1.62e-02  0.000   0.3
    5    -194.0887877484040871    -4.10e-02  8.03e-04  4.61e-03  6.20e-03  0.000   0.3
                              *** Initializing SOSCF ***
---------------------------------------S-O-S-C-F--------------------------------------
Iteration    Energy (Eh)           Delta-E    RMSDP     MaxDP     MaxGrad    Time(sec)
--------------------------------------------------------------------------------------
    6    -194.0890020412525416    -2.14e-04  3.28e-04  1.74e-03  2.33e-03     0.3
               *** Restarting incremental Fock matrix formation ***
    7    -194.0891328230402166    -1.31e-04  1.98e-04  1.10e-03  2.31e-04     0.4
    8    -194.0891330132921269    -1.90e-07  6.56e-05  6.43e-04  1.93e-04     0.3
    9    -194.0891347691674298    -1.76e-06  2.77e-05  1.42e-04  3.41e-05     0.3
   10    -194.0891347551667252     1.40e-08  1.08e-05  7.78e-05  4.30e-05     0.3
   11    -194.0891348034346890    -4.83e-08  2.25e-06  1.33e-05  2.16e-06     0.3
                  *** Gradient check signals convergence ***

               *****************************************************
               *                     SUCCESS                       *
               *           SCF CONVERGED AFTER  11 CYCLES          *
               *****************************************************

Recomputing exchange energy using gridx3       ... done (    0.540 sec)
Old exchange energy                            :     -5.322081765 Eh
New exchange energy                            :     -5.322050761 Eh
Exchange energy change after final integration :      0.000031003 Eh
Total energy after final integration           :   -194.089103801 Eh
             **** ENERGY FILE WAS UPDATED (IPA_G.en.tmp) ****

----------------
TOTAL SCF ENERGY
----------------

Total Energy       :       -194.08910380095159 Eh           -5281.43302 eV

Components:
Nuclear Repulsion  :        134.88833882282009 Eh            3670.49830 eV
Electronic Energy  :       -328.97747362706428 Eh           -8951.93216 eV
One Electron Energy:       -529.60502599878646 Eh          -14411.28541 eV
Two Electron Energy:        200.62755237172217 Eh            5459.35325 eV

Virial components:
Potential Energy   :       -386.29242316637590 Eh          -10511.55123 eV
Kinetic Energy     :        192.20331936542428 Eh            5230.11821 eV
Virial Ratio       :          2.00981140409933

DFT components:
N(Alpha)           :       17.000014507569 electrons
N(Beta)            :       17.000014507569 electrons
N(Total)           :       34.000029015139 electrons
E(X)               :      -21.106517879361 Eh       
E(C)               :       -1.311922417716 Eh       
E(XC)              :      -22.418440297077 Eh       

---------------
SCF CONVERGENCE
---------------

  Last Energy change         ...    4.8268e-08  Tolerance :   1.0000e-08
  Last MAX-Density change    ...    1.3345e-05  Tolerance :   1.0000e-07
  Last RMS-Density change    ...    2.2474e-06  Tolerance :   5.0000e-09
  Last DIIS Error            ...    2.3285e-03  Tolerance :   5.0000e-07
  Last Orbital Gradient      ...    2.1599e-06  Tolerance :   1.0000e-05
  Last Orbital Rotation      ...    3.6391e-06  Tolerance :   1.0000e-05


----------------
ORBITAL ENERGIES
----------------

  NO   OCC          E(Eh)            E(eV) 
   0   2.0000     -19.115885      -520.1697 
   1   2.0000     -10.226709      -278.2829 
   2   2.0000     -10.173488      -276.8347 
   3   2.0000     -10.170051      -276.7412 
   4   2.0000      -0.995106       -27.0782 
   5   2.0000      -0.758677       -20.6447 
   6   2.0000      -0.679596       -18.4927 
   7   2.0000      -0.576338       -15.6830 
   8   2.0000      -0.506192       -13.7742 
   9   2.0000      -0.447577       -12.1792 
  10   2.0000      -0.430744       -11.7211 
  11   2.0000      -0.386442       -10.5156 
  12   2.0000      -0.379435       -10.3249 
  13   2.0000      -0.363136        -9.8814 
  14   2.0000      -0.351127        -9.5547 
  15   2.0000      -0.315156        -8.5758 
  16   2.0000      -0.261102        -7.1050 
  17   0.0000       0.046567         1.2671 
  18   0.0000       0.090488         2.4623 
  19   0.0000       0.106759         2.9051 
  20   0.0000       0.118480         3.2240 
  21   0.0000       0.120074         3.2674 
  22   0.0000       0.143022         3.8918 
  23   0.0000       0.162828         4.4308 
  24   0.0000       0.170445         4.6380 
  25   0.0000       0.216107         5.8806 
  26   0.0000       0.234175         6.3722 
  27   0.0000       0.252587         6.8732 
*Only the first 10 virtual orbitals were printed.

                    ********************************
                    * MULLIKEN POPULATION ANALYSIS *
                    ********************************

-----------------------
MULLIKEN ATOMIC CHARGES
-----------------------
   0 C :    0.087542
   1 O :   -0.316733
   2 C :    0.037645
   3 H :    0.157917
   4 H :    0.010993
   5 C :    0.021396
   6 H :    0.002185
   7 H :    0.009003
   8 H :   -0.019388
   9 H :   -0.007808
  10 H :    0.004802
  11 H :    0.012447
Sum of atomic charges:    0.0000000

--------------------------------
MULLIKEN REDUCED ORBITAL CHARGES
--------------------------------
  0 C s       :     3.054575  s :     3.054575
      pz      :     0.997031  p :     2.784891
      px      :     0.764769
      py      :     1.023091
      dz2     :     0.016749  d :     0.072992
      dxz     :     0.012922
      dyz     :     0.007025
      dx2y2   :     0.020303
      dxy     :     0.015993

  1 O s       :     3.735003  s :     3.735003
      pz      :     1.780111  p :     4.569042
      px      :     1.273139
      py      :     1.515792
      dz2     :     0.001485  d :     0.012689
      dxz     :     0.002408
      dyz     :     0.002278
      dx2y2   :     0.003859
      dxy     :     0.002659

  2 C s       :     2.980545  s :     2.980545
      pz      :     1.007809  p :     2.954146
      px      :     0.962459
      py      :     0.983878
      dz2     :     0.008722  d :     0.027664
      dxz     :     0.002219
      dyz     :     0.004800
      dx2y2   :     0.007501
      dxy     :     0.004422

  3 H s       :     0.774818  s :     0.774818
      pz      :     0.020593  p :     0.067265
      px      :     0.018266
      py      :     0.028406

  4 H s       :     0.965769  s :     0.965769
      pz      :     0.013948  p :     0.023238
      px      :     0.005035
      py      :     0.004254

  5 C s       :     2.988261  s :     2.988261
      pz      :     1.004989  p :     2.962267
      px      :     0.984328
      py      :     0.972949
      dz2     :     0.008924  d :     0.028076
      dxz     :     0.002273
      dyz     :     0.004641
      dx2y2   :     0.007199
      dxy     :     0.005039

  6 H s       :     0.974336  s :     0.974336
      pz      :     0.005250  p :     0.023479
      px      :     0.013665
      py      :     0.004564

  7 H s       :     0.967557  s :     0.967557
      pz      :     0.013870  p :     0.023441
      px      :     0.005168
      py      :     0.004403

  8 H s       :     0.999576  s :     0.999576
      pz      :     0.013771  p :     0.019812
      px      :     0.002179
      py      :     0.003862

  9 H s       :     0.984287  s :     0.984287
      pz      :     0.006249  p :     0.023521
      px      :     0.006811
      py      :     0.010460

 10 H s       :     0.971738  s :     0.971738
      pz      :     0.005296  p :     0.023460
      px      :     0.013720
      py      :     0.004444

 11 H s       :     0.964163  s :     0.964163
      pz      :     0.006354  p :     0.023390
      px      :     0.006330
      py      :     0.010706



                     *******************************
                     * LOEWDIN POPULATION ANALYSIS *
                     *******************************

----------------------
LOEWDIN ATOMIC CHARGES
----------------------
   0 C :    0.059887
   1 O :   -0.149876
   2 C :   -0.055031
   3 H :    0.073963
   4 H :    0.023956
   5 C :   -0.065938
   6 H :    0.022495
   7 H :    0.024862
   8 H :    0.001210
   9 H :    0.014863
  10 H :    0.024131
  11 H :    0.025477

-------------------------------
LOEWDIN REDUCED ORBITAL CHARGES
-------------------------------
  0 C s       :     2.842917  s :     2.842917
      pz      :     1.048298  p :     2.936905
      px      :     0.840246
      py      :     1.048360
      dz2     :     0.038943  d :     0.160291
      dxz     :     0.028090
      dyz     :     0.015993
      dx2y2   :     0.042489
      dxy     :     0.034776

  1 O s       :     3.457464  s :     3.457464
      pz      :     1.781680  p :     4.668555
      px      :     1.321767
      py      :     1.565108
      dz2     :     0.002288  d :     0.023857
      dxz     :     0.004208
      dyz     :     0.003774
      dx2y2   :     0.007811
      dxy     :     0.005775

  2 C s       :     2.842388  s :     2.842388
      pz      :     1.062301  p :     3.141599
      px      :     1.047847
      py      :     1.031451
      dz2     :     0.021759  d :     0.071043
      dxz     :     0.005560
      dyz     :     0.012078
      dx2y2   :     0.019561
      dxy     :     0.012086

  3 H s       :     0.749817  s :     0.749817
      pz      :     0.056913  p :     0.176220
      px      :     0.042014
      py      :     0.077293

  4 H s       :     0.910471  s :     0.910471
      pz      :     0.040420  p :     0.065573
      px      :     0.012611
      py      :     0.012542

  5 C s       :     2.847389  s :     2.847389
      pz      :     1.062684  p :     3.145913
      px      :     1.053554
      py      :     1.029674
      dz2     :     0.022366  d :     0.072635
      dxz     :     0.005727
      dyz     :     0.011767
      dx2y2   :     0.019079
      dxy     :     0.013696

  6 H s       :     0.911755  s :     0.911755
      pz      :     0.013565  p :     0.065751
      px      :     0.039063
      py      :     0.013123

  7 H s       :     0.909740  s :     0.909740
      pz      :     0.039948  p :     0.065397
      px      :     0.012763
      py      :     0.012687

  8 H s       :     0.933387  s :     0.933387
      pz      :     0.041448  p :     0.065402
      px      :     0.010870
      py      :     0.013085

  9 H s       :     0.920081  s :     0.920081
      pz      :     0.016229  p :     0.065055
      px      :     0.018058
      py      :     0.030768

 10 H s       :     0.910759  s :     0.910759
      pz      :     0.013521  p :     0.065110
      px      :     0.038840
      py      :     0.012749

 11 H s       :     0.909227  s :     0.909227
      pz      :     0.016655  p :     0.065296
      px      :     0.016424
      py      :     0.032217



                      *****************************
                      * MAYER POPULATION ANALYSIS *
                      *****************************

  NA   - Mulliken gross atomic population
  ZA   - Total nuclear charge
  QA   - Mulliken gross atomic charge
  VA   - Mayer's total valence
  BVA  - Mayer's bonded valence
  FA   - Mayer's free valence

  ATOM       NA         ZA         QA         VA         BVA        FA
  0 C      5.9125     6.0000     0.0875     4.2390     4.2390     0.0000
  1 O      8.3167     8.0000    -0.3167     2.0641     2.0641    -0.0000
  2 C      5.9624     6.0000     0.0376     3.9518     3.9518     0.0000
  3 H      0.8421     1.0000     0.1579     1.0199     1.0199     0.0000
  4 H      0.9890     1.0000     0.0110     1.0016     1.0016    -0.0000
  5 C      5.9786     6.0000     0.0214     3.9627     3.9627    -0.0000
  6 H      0.9978     1.0000     0.0022     0.9919     0.9919    -0.0000
  7 H      0.9910     1.0000     0.0090     1.0020     1.0020     0.0000
  8 H      1.0194     1.0000    -0.0194     0.9638     0.9638    -0.0000
  9 H      1.0078     1.0000    -0.0078     0.9918     0.9918    -0.0000
 10 H      0.9952     1.0000     0.0048     0.9893     0.9893     0.0000
 11 H      0.9876     1.0000     0.0124     0.9941     0.9941     0.0000

  Mayer bond orders larger than 0.100000
B(  0-C ,  1-O ) :   1.0333 B(  0-C ,  2-C ) :   1.0814 B(  0-C ,  5-C ) :   1.0797 
B(  0-C ,  8-H ) :   0.9336 B(  1-O ,  3-H ) :   0.9800 B(  2-C ,  7-H ) :   0.9611 
B(  2-C , 10-H ) :   0.9648 B(  2-C , 11-H ) :   0.9608 B(  4-H ,  5-C ) :   0.9619 
B(  5-C ,  6-H ) :   0.9557 B(  5-C ,  9-H ) :   0.9602 

-------
TIMINGS
-------

Total SCF time: 0 days 0 hours 0 min 4 sec 

Total time                  ....       4.965 sec
Sum of individual times     ....       4.660 sec  ( 93.9%)

SCF preparation             ....       0.572 sec  ( 11.5%)
Fock matrix formation       ....       3.938 sec  ( 79.3%)
  Startup                   ....       0.011 sec  (  0.3% of F)
  Split-RI-J                ....       0.326 sec  (  8.3% of F)
  Chain of spheres X        ....       2.739 sec  ( 69.5% of F)
  XC integration            ....       0.988 sec  ( 25.1% of F)
    XC Preparation          ....       0.000 sec  (  0.0% of XC)
    Basis function eval.    ....       0.380 sec  ( 38.4% of XC)
    Density eval.           ....       0.174 sec  ( 17.7% of XC)
    XC-Functional eval.     ....       0.074 sec  (  7.5% of XC)
    XC-Potential eval.      ....       0.208 sec  ( 21.0% of XC)
Diagonalization             ....       0.000 sec  (  0.0%)
Density matrix formation    ....       0.036 sec  (  0.7%)
Total Energy calculation    ....       0.007 sec  (  0.1%)
Population analysis         ....       0.019 sec  (  0.4%)
Orbital Transformation      ....       0.012 sec  (  0.2%)
Orbital Orthonormalization  ....       0.000 sec  (  0.0%)
DIIS solution               ....       0.050 sec  (  1.0%)
SOSCF solution              ....       0.026 sec  (  0.5%)
Finished LeanSCF after   5.0 sec

Maximum memory used throughout the entire LEANSCF-calculation: 8.9 MB
[1770540484.848405] [node213:2934969:0]     ucp_context.c:1234 UCX  WARN  transport 'ib' is not available, please use one or more of: mm, posix, self, shm, sm, sysv, tcp
[1770540484.910298] [node213:2934970:0]     ucp_context.c:1234 UCX  WARN  transport 'ib' is not available, please use one or more of: mm, posix, self, shm, sm, sysv, tcp
[1770540484.978196] [node213:2934973:0]     ucp_context.c:1234 UCX  WARN  transport 'ib' is not available, please use one or more of: mm, posix, self, shm, sm, sysv, tcp
[1770540485.046406] [node213:2934976:0]     ucp_context.c:1234 UCX  WARN  transport 'ib' is not available, please use one or more of: mm, posix, self, shm, sm, sysv, tcp


           ************************************************************
           *        Program running with 4 parallel MPI-processes     *
           *              working on a common directory               *
           ************************************************************

------------------------------------------------------------------------------
                         ORCA PROPERTY INTEGRAL CALCULATIONS
------------------------------------------------------------------------------

GBWName                                   ... IPA_G.gbw
Number of atoms                           ...     12
Number of basis functions                 ...     96
Max core memory                           ...   1500 MB

Dipole integrals                          ... YES
Quadrupole integrals                      ...  NO
Linear momentum integrals                 ...  NO
Angular momentum integrals                ...  NO
Higher moments length integrals           ...  NO
Higher moments velocity integrals         ...  NO
Kinetic energy integrals                  ...  NO
GIAO right hand sides                     ...  NO
GIAO dipole derivative integrals          ...  NO
SOC integrals                             ...  NO
EPR diamagnetic integrals (GIAO)          ...  NO
EPR gauge integrals                       ...  NO
Field gradient integrals                  ...  NO (   0 nuclei)
Spin-dipole/Fermi contact integrals       ...  NO (   0 nuclei)
Contact density integrals                 ...  NO (   0 nuclei)
Nucleus-orbit integrals                   ...  NO (   0 nuclei)
Geometric perturbations                   ...  NO (  12 nuclei)

Choice of electric origin   ... Center of mass
Position of electric origin ... ( -4.5821, -1.5220,  1.5691) 
Choice of magnetic origin   ... GIAO
Position of magnetic origin ... (  0.0000,  0.0000,  0.0000) 

Calculating integrals                     ... Electric Dipole (Length)     done (  0.0 sec)

Property integrals calculated in   0.0 sec

Maximum memory used throughout the entire PROPINT-calculation: 7.3 MB

-------------------------   --------------------
FINAL SINGLE POINT ENERGY      -194.089103800952
-------------------------   --------------------

[1770540486.525064] [node213:2935009:0]     ucp_context.c:1234 UCX  WARN  transport 'ib' is not available, please use one or more of: mm, posix, self, shm, sm, sysv, tcp
[1770540486.586643] [node213:2935010:0]     ucp_context.c:1234 UCX  WARN  transport 'ib' is not available, please use one or more of: mm, posix, self, shm, sm, sysv, tcp
[1770540486.655177] [node213:2935013:0]     ucp_context.c:1234 UCX  WARN  transport 'ib' is not available, please use one or more of: mm, posix, self, shm, sm, sysv, tcp
[1770540486.722520] [node213:2935016:0]     ucp_context.c:1234 UCX  WARN  transport 'ib' is not available, please use one or more of: mm, posix, self, shm, sm, sysv, tcp


           ************************************************************
           *        Program running with 4 parallel MPI-processes     *
           *              working on a common directory               *
           ************************************************************
------------------------------------------------------------------------------
                         ORCA SCF GRADIENT CALCULATION
------------------------------------------------------------------------------

Nuc. rep. gradient        (SHARK) ... done (  0.0 sec)
HCore & Overlap gradient  (SHARK) ... done (  0.0 sec)
Split-RIJ-J gradient      (SHARK) ... done (  0.1 sec)
done (  2.3 sec)
XC gradient                       ... done (  0.6 sec)

------------------
CARTESIAN GRADIENT
------------------

   1   C   :   -0.005960998   -0.002872863    0.011909559
   2   O   :   -0.004443526    0.000213019   -0.000944427
   3   C   :   -0.005901899    0.002804355   -0.002970591
   4   H   :    0.002528250    0.005434088    0.002730455
   5   H   :   -0.000193940    0.002395213    0.004390892
   6   C   :    0.000887434   -0.000783993   -0.002646813
   7   H   :    0.005117510   -0.002358286   -0.000932605
   8   H   :   -0.000398053   -0.002337068    0.004461010
   9   H   :    0.005910830   -0.000134672   -0.008763006
  10   H   :   -0.000791674   -0.005217489   -0.003418668
  11   H   :    0.004247232   -0.000610553   -0.001208348
  12   H   :   -0.001001167    0.003468250   -0.002607459

Difference to translation invariance:
           :    0.0000000000   -0.0000000001   -0.0000000000

Difference to rotation invariance:
           :   -0.0000480145    0.0000931528    0.0000488378

Norm of the Cartesian gradient     ...    0.0241617990
RMS gradient                       ...    0.0040269665
MAX gradient                       ...    0.0119095594

-------
TIMINGS
-------

Total SCF gradient time     ....        3.072 sec

Densities                   ....       0.000 sec  (  0.0%)
One electron gradient       ....       0.020 sec  (  0.7%)
RI-J Coulomb gradient       ....       0.134 sec  (  4.4%)
COSX gradient               ....       2.336 sec  ( 76.0%)
XC gradient                 ....       0.581 sec  ( 18.9%)

Maximum memory used throughout the entire SCFGRAD-calculation: 11.5 MB
------------------------------------------------------------------------------
                         ORCA GEOMETRY RELAXATION STEP
------------------------------------------------------------------------------

Reading the OPT-File                    .... done
Getting information on internals        .... done
Copying old internal coords+grads       .... done
Making the new internal coordinates     .... (2022 redundants) done
Validating the new internal coordinates .... (2022 redundants) done
Calculating the B-matrix                .... done
Calculating the G,G- and P matrices     .... done
Transforming gradient to internals      .... done
Projecting the internal gradient        .... done
Number of atoms                         ....  12
Number of internal coordinates          ....  45
Current Energy                          ....  -194.089103801 Eh
Current gradient norm                   ....     0.024161799 Eh/bohr
Maximum allowed component of the step   ....  0.300
Current trust radius                    ....  0.300
Evaluating the initial hessian          ....  (Almloef) done
Projecting the Hessian                  .... done
Forming the augmented Hessian           .... done
Diagonalizing the augmented Hessian     .... done
Last element of RFO vector              ....  0.996260576
Lowest eigenvalues of augmented Hessian:
 -0.001668094  0.011837389  0.011935773  0.019252816  0.104326136
Length of the computed step             ....  0.086723741
The final length of the internal step   ....  0.086723741
Converting the step to Cartesian space:
 Initial RMS(Int)=    0.0129280121
Transforming coordinates:
 Iter   0:  RMS(Cart)=    0.0224778496 RMS(Int)=    1.3216044765
done
Storing new coordinates                 .... done

                                .--------------------.
          ----------------------|Geometry convergence|-------------------------
          Item                value                   Tolerance       Converged
          ---------------------------------------------------------------------
          RMS gradient        0.0033832456            0.0001000000      NO
          MAX gradient        0.0093449465            0.0003000000      NO
          RMS step            0.0129280121            0.0020000000      NO
          MAX step            0.0280999408            0.0040000000      NO
          -------------------------------------------------------------------------
          ........................................................
          Max(Bonds)      0.0139      Max(Angles)    1.35
          Max(Dihed)        1.61      Max(Improp)    0.00
          ---------------------------------------------------------------------

The optimization has not yet converged - more geometry cycles are needed


    ---------------------------------------------------------------------------
                         Redundant Internal Coordinates
                            (Angstroem and degrees)

        Definition                    Value    dE/dq     Step     New-Value
    ----------------------------------------------------------------------------
     1. B(O   1,C   0)                1.4241 -0.002567  0.0027    1.4269   
     2. B(C   2,C   0)                1.5204 -0.000435  0.0006    1.5210   
     3. B(H   3,O   1)                0.9724  0.006574 -0.0070    0.9654   
     4. B(C   5,H   4)                1.0956 -0.004313  0.0064    1.1020   
     5. B(C   5,C   0)                1.5213 -0.005880  0.0080    1.5294   
     6. B(H   6,C   5)                1.0944 -0.005394  0.0080    1.1024   
     7. B(H   7,C   2)                1.0958 -0.004314  0.0064    1.1023   
     8. B(H   8,C   0)                1.0955 -0.009345  0.0139    1.1094   
     9. B(H   9,C   5)                1.0955 -0.005811  0.0087    1.1042   
    10. B(H  10,C   2)                1.0942 -0.004401  0.0065    1.1008   
    11. B(H  11,C   2)                1.0954 -0.004314  0.0064    1.1019   
    12. A(O   1,C   0,C   2)          108.26  0.007047   -1.22    107.04   
    13. A(O   1,C   0,H   8)          108.05 -0.002945    0.83    108.88   
    14. A(O   1,C   0,C   5)          109.35 -0.004882    1.35    110.71   
    15. A(C   5,C   0,H   8)          109.99  0.003665   -0.78    109.21   
    16. A(C   2,C   0,C   5)          111.57 -0.004035    0.65    112.22   
    17. A(C   2,C   0,H   8)          109.54  0.001185   -0.83    108.71   
    18. A(C   0,O   1,H   3)          107.53 -0.000747    0.12    107.65   
    19. A(C   0,C   2,H  10)          111.39  0.001041   -0.25    111.14   
    20. A(H  10,C   2,H  11)          108.57  0.000359    0.03    108.61   
    21. A(H   7,C   2,H  11)          106.61 -0.002296    0.56    107.17   
    22. A(C   0,C   2,H  11)          110.34 -0.000683    0.22    110.56   
    23. A(H   7,C   2,H  10)          108.75 -0.001113   -0.02    108.74   
    24. A(C   0,C   2,H   7)          111.03  0.002506   -0.51    110.52   
    25. A(H   6,C   5,H   9)          108.52  0.002979   -0.52    108.00   
    26. A(H   4,C   5,H   6)          108.75 -0.000089   -0.11    108.64   
    27. A(H   4,C   5,H   9)          106.67 -0.002523    0.56    107.23   
    28. A(C   0,C   5,H   9)          110.47 -0.001340    0.30    110.77   
    29. A(C   0,C   5,H   6)          111.28 -0.001960    0.32    111.59   
    30. A(C   0,C   5,H   4)          111.00  0.002949   -0.55    110.45   
    31. D(H   3,O   1,C   0,C   5)     59.09  0.001131   -0.17     58.92   
    32. D(H   3,O   1,C   0,H   8)    -60.62  0.001259   -0.50    -61.12   
    33. D(H   3,O   1,C   0,C   2)   -179.17 -0.002399    0.69   -178.48   
    34. D(H   7,C   2,C   0,H   8)   -176.03  0.001253   -1.45   -177.48   
    35. D(H   7,C   2,C   0,C   5)     61.94 -0.001511   -0.33     61.61   
    36. D(H  10,C   2,C   0,C   5)    -59.42 -0.002544    0.21    -59.21   
    37. D(H   7,C   2,C   0,O   1)    -58.44  0.002420   -1.61    -60.05   
    38. D(H  10,C   2,C   0,H   8)     62.61  0.000219   -0.91     61.70   
    39. D(H  10,C   2,C   0,O   1)   -179.79  0.001386   -1.07   -180.86   
    40. D(H   6,C   5,C   0,C   2)     60.74 -0.000301   -0.40     60.34   
    41. D(H   6,C   5,C   0,O   1)   -179.53  0.002738   -0.62   -180.15   
    42. D(H   4,C   5,C   0,H   8)    177.71 -0.002193    1.05    178.75   
    43. D(H   4,C   5,C   0,C   2)    -60.52 -0.000875   -0.10    -60.63   
    44. D(H   6,C   5,C   0,H   8)    -61.03 -0.001619    0.75    -60.28   
    45. D(H   4,C   5,C   0,O   1)     59.21  0.002165   -0.32     58.88   
    ----------------------------------------------------------------------------

Geometry step timings:
Preparation and reading OPT file:      0.000 s ( 1.784 %)
Internal coordinates            :      0.000 s ( 4.460 %)
B/P matrices and projection     :      0.001 s (18.552 %)
Hessian update/contruction      :      0.000 s ( 9.097 %)
Making the step                 :      0.001 s (18.230 %)
Converting the step to Cartesian:      0.000 s ( 4.567 %)
Storing new data                :      0.000 s ( 2.319 %)
Checking convergence            :      0.000 s ( 6.029 %)
Final printing                  :      0.001 s (34.713 %)
Total time                      :      0.003 s
[1770540491.284679] [node213:2935049:0]     ucp_context.c:1234 UCX  WARN  transport 'ib' is not available, please use one or more of: mm, posix, self, shm, sm, sysv, tcp
[1770540491.345651] [node213:2935050:0]     ucp_context.c:1234 UCX  WARN  transport 'ib' is not available, please use one or more of: mm, posix, self, shm, sm, sysv, tcp
[1770540491.413600] [node213:2935053:0]     ucp_context.c:1234 UCX  WARN  transport 'ib' is not available, please use one or more of: mm, posix, self, shm, sm, sysv, tcp
[1770540491.481013] [node213:2935056:0]     ucp_context.c:1234 UCX  WARN  transport 'ib' is not available, please use one or more of: mm, posix, self, shm, sm, sysv, tcp

Time for energy+gradient        :     16.499 s
Time for complete geometry iter :     18.145 s

         *************************************************************
         *                GEOMETRY OPTIMIZATION CYCLE   2            *
         *************************************************************
---------------------------------
CARTESIAN COORDINATES (ANGSTROEM)
---------------------------------
  C     -2.495335   -0.803589    1.190681
  O     -1.102441   -0.914323    0.901693
  C     -3.168306   -2.043271    0.621824
  H     -0.662643   -0.142862    1.280443
  H     -2.921433    0.511525   -0.488630
  C     -3.068586    0.486849    0.603236
  H     -4.145725    0.586043    0.816002
  H     -3.010024   -2.103453   -0.467348
  H     -2.634034   -0.796686    2.291378
  H     -2.555144    1.369910    1.022548
  H     -4.250712   -2.034455    0.821786
  H     -2.736509   -2.955390    1.064167

----------------------------
CARTESIAN COORDINATES (A.U.)
----------------------------
  NO LB      ZA    FRAG     MASS         X           Y           Z
   0 C     6.0000    0    12.011   -4.715500   -1.518563    2.250061
   1 O     8.0000    0    15.999   -2.083311   -1.727820    1.703953
   2 C     6.0000    0    12.011   -5.987231   -3.861222    1.175077
   3 H     1.0000    0     1.008   -1.252214   -0.269970    2.419686
   4 H     1.0000    0     1.008   -5.520709    0.966642   -0.923376
   5 C     6.0000    0    12.011   -5.798787    0.920010    1.139952
   6 H     1.0000    0     1.008   -7.834285    1.107461    1.542019
   7 H     1.0000    0     1.008   -5.688121   -3.974951   -0.883159
   8 H     1.0000    0     1.008   -4.977603   -1.505517    4.330077
   9 H     1.0000    0     1.008   -4.828522    2.588754    1.932336
  10 H     1.0000    0     1.008   -8.032682   -3.844563    1.552950
  11 H     1.0000    0     1.008   -5.171252   -5.584878    2.010985

--------------------------------
INTERNAL COORDINATES (ANGSTROEM)
--------------------------------
 C      0   0   0     0.000000000000     0.00000000     0.00000000
 O      1   0   0     1.426860510833     0.00000000     0.00000000
 C      1   2   0     1.520953564036   107.03334737     0.00000000
 H      2   1   3     0.965414332512   107.65204239   181.52425734
 H      1   2   3     2.175124708867    94.69135422   261.47120356
 C      5   1   2     1.102013761060    41.20792713   233.47159664
 H      6   5   1     1.102423597387   108.64318423   237.29261508
 H      3   1   2     1.102256750636   110.52023688   299.96280340
 H      1   2   3     1.109422766189   108.87269721   117.34450041
 H      6   5   1     1.104192941014   107.23248788   120.79428586
 H      3   1   2     1.100756947733   111.13824364   179.14221608
 H      3   1   2     1.101852286249   110.55913265    58.45511635

---------------------------
INTERNAL COORDINATES (A.U.)
---------------------------
 C      0   0   0     0.000000000000     0.00000000     0.00000000
 O      1   0   0     2.696375596781     0.00000000     0.00000000
 C      1   2   0     2.874185698440   107.03334737     0.00000000
 H      2   1   3     1.824368694210   107.65204239   181.52425734
 H      1   2   3     4.110390006885    94.69135422   261.47120356
 C      5   1   2     2.082504204215    41.20792713   233.47159664
 H      6   5   1     2.083278682634   108.64318423   237.29261508
 H      3   1   2     2.082963387968   110.52023688   299.96280340
 H      1   2   3     2.096505194835   108.87269721   117.34450041
 H      6   5   1     2.086622257525   107.23248788   120.79428586
 H      3   1   2     2.080129171226   111.13824364   179.14221608
 H      3   1   2     2.082199061046   110.55913265    58.45511635

[1770540492.918538] [node213:2935089:0]     ucp_context.c:1234 UCX  WARN  transport 'ib' is not available, please use one or more of: mm, posix, self, shm, sm, sysv, tcp
[1770540492.979053] [node213:2935090:0]     ucp_context.c:1234 UCX  WARN  transport 'ib' is not available, please use one or more of: mm, posix, self, shm, sm, sysv, tcp
[1770540493.047158] [node213:2935093:0]     ucp_context.c:1234 UCX  WARN  transport 'ib' is not available, please use one or more of: mm, posix, self, shm, sm, sysv, tcp
[1770540493.115842] [node213:2935096:0]     ucp_context.c:1234 UCX  WARN  transport 'ib' is not available, please use one or more of: mm, posix, self, shm, sm, sysv, tcp


           ************************************************************
           *        Program running with 4 parallel MPI-processes     *
           *              working on a common directory               *
           ************************************************************
------------------------------------------------------------------------------
                   ___                                                        
                  /   \      - P O W E R E D   B Y -                         
                 /     \                                                     
                 |  |  |   _    _      __       _____    __    __             
                 |  |  |  | |  | |    /  \     |  _  \  |  |  /  |          
                  \  \/   | |  | |   /    \    | | | |  |  | /  /          
                 / \  \   | |__| |  /  /\  \   | |_| |  |  |/  /          
                |  |  |   |  __  | /  /__\  \  |    /   |      \           
                |  |  |   | |  | | |   __   |  |    \   |  |\   \          
                \     /   | |  | | |  |  |  |  | |\  \  |  | \   \       
                 \___/    |_|  |_| |__|  |__|  |_| \__\ |__|  \__/        
                                                                              
                      - O R C A' S   B I G   F R I E N D -                    
                                      &                                       
                       - I N T E G R A L  F E E D E R -                       
                                                                              
 v1 FN, 2020, v2 2021, v3 2022-2024                                           
------------------------------------------------------------------------------


----------------------
SHARK INTEGRAL PACKAGE
----------------------

Number of atoms                             ...     12
Number of basis functions                   ...     96
Number of shells                            ...     48
Maximum angular momentum                    ...      2
Integral batch strategy                     ... SHARK/LIBINT Hybrid
RI-J (if used) integral strategy            ... SPLIT-RIJ (Revised 2003 algorithm where possible)
Printlevel                                  ...      1
Contraction scheme used                     ... SEGMENTED contraction
Prescreening option                         ... SCHWARTZ
   Thresh                                   ... 2.500e-11
   Tcut                                     ... 2.500e-12
   Tpresel                                  ... 2.500e-12 
Coulomb Range Separation                    ... NOT USED
Exchange Range Separation                   ... NOT USED
Multipole approximations                    ... NOT USED
Finite Nucleus Model                        ... NOT USED
CABS basis                                  ... NOT available
Auxiliary Coulomb fitting basis             ... AVAILABLE
   # of basis functions in Aux-J            ...    284
   # of shells in Aux-J                     ...    100
   Maximum angular momentum in Aux-J        ...      4
Auxiliary J/K fitting basis                 ... NOT available
Auxiliary Correlation fitting basis         ... NOT available
Auxiliary 'external' fitting basis          ... NOT available

Checking pre-screening integrals            ... done (  0.0 sec) Dimension = 48
   => SHARK Basis and OBASIS are compatible. Storing Pre-screening
Shell pair information
Shell pair cut-off parameter TPreSel        ...   2.5e-12
Total number of shell pairs                 ...      1176
Shell pairs after pre-screening             ...      1169
Total number of primitive shell pairs       ...      3992
Primitive shell pairs kept                  ...      3295
          la=0 lb=0:    403 shell pairs
          la=1 lb=0:    444 shell pairs
          la=1 lb=1:    136 shell pairs
          la=2 lb=0:    112 shell pairs
          la=2 lb=1:     64 shell pairs
          la=2 lb=2:     10 shell pairs

Checking whether 4 symmetric matrices of dimension 96 fit in memory
:Max Core in MB      =   1500.00
 MB in use           =      4.85
 MB left             =   1495.15
 MB needed           =      0.14
 Data fit in memory  = YES
Calculating RI/J V-Matrix + Cholesky decomp.... done (  0.0 sec)
[...]
     21      -0.275959   0.485294   0.077616  -0.234733   0.006691   0.012051
     22      -0.264656  -0.185400  -0.128418   0.418562   0.000595  -0.001074
     23       0.001414   0.063533   0.016760  -0.061264  -0.042820  -0.083443
     24       0.000303  -0.034600  -0.146374  -0.184389  -0.131702   0.001234
     25       0.166947  -0.089301  -0.166386  -0.031259   0.009482   0.002555
     26       0.006839  -0.020391   0.023090  -0.036227   0.983336  -0.026139
     27      -0.241168  -0.309548   0.374866  -0.125341  -0.024904  -0.307632
     28       0.023990   0.011055  -0.240349  -0.099670  -0.036444  -0.515315
     29       0.260148   0.327189   0.087049   0.383106  -0.017961  -0.260970
     30      -0.095615   0.060920  -0.031544  -0.007704   0.027291  -0.084305
     31       0.334308   0.004158   0.237317  -0.229426  -0.004966   0.000762
     32      -0.447809   0.419716  -0.025162  -0.094046  -0.005566   0.017870
     33       0.433939  -0.087259   0.218023  -0.178664  -0.014943   0.031443
     34       0.104298  -0.165627   0.003697   0.103753   0.022529  -0.056752
     35      -0.209550  -0.293130  -0.173521   0.443989  -0.010798   0.030529
                 30         31         32         33         34         35    
      0       0.001316   0.000946  -0.000885  -0.001381  -0.001417   0.000743
      1       0.001514   0.001067  -0.000465   0.000074   0.000998  -0.001772
      2       0.000912   0.003249   0.002591   0.008300   0.000166  -0.001019
      3       0.000001  -0.000409   0.000249   0.000312   0.000500  -0.030839
      4       0.000023  -0.000191   0.000075   0.000098  -0.000066  -0.049498
      5       0.000048  -0.000077  -0.000263  -0.000418  -0.000020  -0.022467
      6      -0.021115  -0.002086   0.021620  -0.026624  -0.077481  -0.000137
      7      -0.037547   0.001819   0.006772  -0.025915   0.049337   0.000371
      8      -0.025841  -0.000511  -0.035197   0.074948  -0.015457   0.000317
      9      -0.001791  -0.004795  -0.000695  -0.000175   0.000801   0.472974
     10       0.000340   0.001346  -0.001058  -0.000351  -0.000943   0.799071
     11       0.000014  -0.000906   0.001300  -0.000129  -0.000271   0.365847
     12      -0.009236   0.068335   0.082125   0.038661   0.006558  -0.000527
     13      -0.000946   0.012233   0.005881   0.005725   0.000067  -0.000143
     14       0.073198  -0.407555  -0.654207  -0.311718  -0.058084   0.000063
     15      -0.000512   0.065532  -0.052610  -0.025436  -0.007719   0.000442
     16       0.007540   0.043357   0.007607   0.004106  -0.000307   0.000430
     17      -0.001849   0.048796   0.064797   0.030701   0.005931   0.000061
     18       0.060187  -0.512298   0.583977   0.285179   0.083846   0.001815
     19      -0.004005   0.052801  -0.048918  -0.024395  -0.008283  -0.001196
     20      -0.011879   0.113233  -0.109218  -0.053143  -0.016352   0.000423
     21      -0.085586   0.000541  -0.041392   0.085967  -0.015731   0.000535
     22       0.014608  -0.001656   0.009339  -0.026165   0.008738   0.000380
     23       0.628860  -0.007761   0.330696  -0.675748   0.019603   0.000465
     24      -0.001473   0.002400   0.003579   0.009224   0.001900   0.003364
     25      -0.001863  -0.000999   0.001969  -0.001115  -0.001000   0.000440
     26      -0.006143  -0.032802  -0.024283  -0.076598  -0.000805  -0.000069
     27      -0.046689  -0.336764  -0.036878  -0.018615   0.004253  -0.001944
     28      -0.081403  -0.587030  -0.045719  -0.025281   0.007851  -0.000731
     29      -0.039292  -0.286870  -0.011870  -0.008222   0.004821  -0.001744
     30       0.543203   0.009920  -0.266152   0.406761   0.644266   0.000329
     31      -0.005622  -0.000578   0.002666  -0.004635   0.004553  -0.000764
     32      -0.114613  -0.001969   0.049907  -0.072479  -0.136450  -0.000667
     33      -0.216621   0.011879   0.051296  -0.175152   0.298281   0.000430
     34       0.418037  -0.024109  -0.091144   0.333639  -0.606057   0.000152
     35      -0.211826   0.011792   0.038283  -0.153112   0.299382  -0.000082


-----------
IR SPECTRUM
-----------

 Mode   freq       eps      Int      T**2         TX        TY        TZ
       cm**-1   L/(mol*cm) km/mol    a.u.
----------------------------------------------------------------------------
  6:    227.67   0.000676    3.42  0.000927  ( 0.007375 -0.014036  0.025985)
  7:    271.68   0.000266    1.34  0.000306  (-0.006958  0.007141 -0.014361)
  8:    309.28   0.021702  109.67  0.021897  (-0.031105  0.069886 -0.126673)
  9:    362.19   0.000519    2.62  0.000447  (-0.008524  0.010547 -0.016229)
 10:    416.73   0.002084   10.53  0.001561  (-0.026713 -0.025111  0.014716)
 11:    486.44   0.001391    7.03  0.000892  (-0.023293  0.010456 -0.015511)
 12:    829.25   0.000454    2.29  0.000171  (-0.013004 -0.001182  0.000457)
 13:    923.50   0.000024    0.12  0.000008  (-0.000046  0.002775  0.000635)
 14:    943.13   0.000297    1.50  0.000098  ( 0.009756  0.000232 -0.001724)
 15:    976.38   0.007611   38.47  0.002433  (-0.048827  0.006075  0.003421)
 16:   1085.33   0.005053   25.53  0.001453  (-0.036520 -0.009612  0.005167)
 17:   1162.16   0.002573   13.00  0.000691  ( 0.019594  0.007156 -0.015989)
 18:   1184.46   0.009967   50.37  0.002626  (-0.050346  0.009550  0.000214)
 19:   1270.41   0.011880   60.04  0.002918  ( 0.052841 -0.006082 -0.009436)
 20:   1363.36   0.002259   11.42  0.000517  ( 0.021107 -0.008450  0.000431)
 21:   1379.47   0.000873    4.41  0.000197  (-0.009802  0.009984 -0.001274)
 22:   1396.37   0.004088   20.66  0.000914  ( 0.021273 -0.019719  0.008503)
 23:   1420.06   0.003949   19.96  0.000868  (-0.003493 -0.027881 -0.008851)
 24:   1452.92   0.000252    1.27  0.000054  ( 0.003722 -0.001127 -0.006238)
 25:   1459.96   0.000646    3.26  0.000138  (-0.003043  0.004670  0.010340)
 26:   1471.07   0.000885    4.47  0.000188  (-0.005567  0.007078 -0.010322)
 27:   1482.38   0.000716    3.62  0.000151  (-0.007205  0.003177  0.009418)
 28:   2944.70   0.013830   69.89  0.001466  ( 0.009059  0.001674 -0.037159)
 29:   3016.10   0.003999   20.21  0.000414  (-0.001558  0.020219 -0.001574)
 30:   3031.83   0.002232   11.28  0.000230  (-0.007781 -0.010362 -0.007866)
 31:   3093.09   0.005957   30.10  0.000601  ( 0.016919  0.012446  0.012644)
 32:   3110.74   0.001075    5.43  0.000108  (-0.006924  0.003127  0.007079)
 33:   3117.54   0.007877   39.81  0.000788  (-0.012108 -0.004619  0.024910)
 34:   3125.39   0.004327   21.87  0.000432  (-0.017476  0.011187 -0.001213)
 35:   3811.06   0.003623   18.31  0.000297  ( 0.012453  0.010587  0.005429)

* The epsilon (eps) is given for a Dirac delta lineshape.
** The dipole moment derivative (T) already includes vibrational overlap.

The first frequency considered to be a vibration is 6
The total number of vibrations considered is 30


--------------------------
THERMOCHEMISTRY AT 298.15K
--------------------------

Temperature         ...   298.15 K
Pressure            ...     1.00 atm
Total Mass          ...    60.10 AMU
Quasi RRHO          ...     True
Cut-Off Frequency   ...     1.00 cm^-1

Throughout the following assumptions are being made:
  (1) The electronic state is orbitally nondegenerate
  (2) There are no thermally accessible electronically excited states
  (3) Hindered rotations indicated by low frequency modes are not
      treated as such but are treated as vibrations and this may
      cause some error
  (4) All equations used are the standard statistical mechanics
      equations for an ideal gas
  (5) All vibrations are strictly harmonic

freq.     227.67  E(vib)   ...       0.33 
freq.     271.68  E(vib)   ...       0.29 
freq.     309.28  E(vib)   ...       0.26 
freq.     362.19  E(vib)   ...       0.22 
freq.     416.73  E(vib)   ...       0.18 
freq.     486.44  E(vib)   ...       0.15 
freq.     829.25  E(vib)   ...       0.04 
freq.     923.50  E(vib)   ...       0.03 
freq.     943.13  E(vib)   ...       0.03 
freq.     976.38  E(vib)   ...       0.03 
freq.    1085.33  E(vib)   ...       0.02 
freq.    1162.16  E(vib)   ...       0.01 
freq.    1184.46  E(vib)   ...       0.01 
freq.    1270.41  E(vib)   ...       0.01 
freq.    1363.36  E(vib)   ...       0.01 
freq.    1379.47  E(vib)   ...       0.01 
freq.    1396.37  E(vib)   ...       0.00 
freq.    1420.06  E(vib)   ...       0.00 
freq.    1452.92  E(vib)   ...       0.00 
freq.    1459.96  E(vib)   ...       0.00 
freq.    1471.07  E(vib)   ...       0.00 
freq.    1482.38  E(vib)   ...       0.00 
freq.    2944.70  E(vib)   ...       0.00 
freq.    3016.10  E(vib)   ...       0.00 
freq.    3031.83  E(vib)   ...       0.00 
freq.    3093.09  E(vib)   ...       0.00 
freq.    3110.74  E(vib)   ...       0.00 
freq.    3117.54  E(vib)   ...       0.00 
freq.    3125.39  E(vib)   ...       0.00 
freq.    3811.06  E(vib)   ...       0.00 

------------
INNER ENERGY
------------

The inner energy is: U= E(el) + E(ZPE) + E(vib) + E(rot) + E(trans)
    E(el)   - is the total energy from the electronic structure calculation
              = E(kin-el) + E(nuc-el) + E(el-el) + E(nuc-nuc)
    E(ZPE)  - the the zero temperature vibrational energy from the frequency calculation
    E(vib)  - the the finite temperature correction to E(ZPE) due to population
              of excited vibrational states
    E(rot)  - is the rotational thermal energy
    E(trans)- is the translational thermal energy

Summary of contributions to the inner energy U:
Electronic energy                ...   -194.09021273 Eh
Zero point energy                ...      0.10735779 Eh      67.37 kcal/mol
Thermal vibrational correction   ...      0.00259610 Eh       1.63 kcal/mol
Thermal rotational correction    ...      0.00141627 Eh       0.89 kcal/mol
Thermal translational correction ...      0.00141627 Eh       0.89 kcal/mol
-----------------------------------------------------------------------
Total thermal energy                   -193.97742629 Eh


Summary of corrections to the electronic energy:
(perhaps to be used in another calculation)
Total thermal correction                  0.00542864 Eh       3.41 kcal/mol
Non-thermal (ZPE) correction              0.10735779 Eh      67.37 kcal/mol
-----------------------------------------------------------------------
Total correction                          0.11278643 Eh      70.77 kcal/mol


--------
ENTHALPY
--------

The enthalpy is H = U + kB*T
                kB is Boltzmann's constant
Total thermal energy              ...   -193.97742629 Eh 
Thermal Enthalpy correction       ...      0.00094421 Eh       0.59 kcal/mol
-----------------------------------------------------------------------
Total Enthalpy                    ...   -193.97648208 Eh


Note: Only C1 symmetry has been detected, increase convergence thresholds 
      if your molecule has a higher symmetry. Symmetry factor of 1.0 is   
      used for the rotational entropy correction. 
 

Note: Rotational entropy computed according to Herzberg 
Infrared and Raman Spectra, Chapter V,1, Van Nostrand Reinhold, 1945 
Point Group:  C1, Symmetry Number:   1  
Rotational constants in cm-1:     0.289270     0.266172     0.158368 

Vibrational entropy computed according to the QRRHO of S. Grimme
Chem.Eur.J. 2012 18 9955 using a reference frequency of 100.0 cm-1


-------
ENTROPY
-------

The entropy contributions are T*S = T*(S(el)+S(vib)+S(rot)+S(trans))
     S(el)   - electronic entropy
     S(vib)  - vibrational entropy
     S(rot)  - rotational entropy
     S(trans)- translational entropy
The entropies will be listed as multiplied by the temperature to get
units of energy

Electronic entropy                ...      0.00000000 Eh      0.00 kcal/mol
Vibrational entropy               ...      0.00400506 Eh      2.51 kcal/mol
Rotational entropy                ...      0.01159124 Eh      7.27 kcal/mol
Translational entropy             ...      0.01815004 Eh     11.39 kcal/mol
-----------------------------------------------------------------------
Final entropy term                ...      0.03374634 Eh     21.18 kcal/mol

In case the symmetry of your molecule has not been determined correctly
or in case you have a reason to use a different symmetry number we print 
out the resulting rotational entropy values for sn=1,12:

 non-linear molecules -----------------------------------
|  sn= 1 | S(rot)=       0.01159124 Eh      7.27 kcal/mol|
|  sn= 2 | S(rot)=       0.01093678 Eh      6.86 kcal/mol|
|  sn= 3 | S(rot)=       0.01055395 Eh      6.62 kcal/mol|
|  sn= 4 | S(rot)=       0.01028232 Eh      6.45 kcal/mol|
|  sn= 5 | S(rot)=       0.01007164 Eh      6.32 kcal/mol|
|  sn= 6 | S(rot)=       0.00989949 Eh      6.21 kcal/mol|
|  sn= 7 | S(rot)=       0.00975395 Eh      6.12 kcal/mol|
|  sn= 8 | S(rot)=       0.00962787 Eh      6.04 kcal/mol|
|  sn= 9 | S(rot)=       0.00951666 Eh      5.97 kcal/mol|
|  sn=10 | S(rot)=       0.00941718 Eh      5.91 kcal/mol|
|  sn=11 | S(rot)=       0.00932719 Eh      5.85 kcal/mol|
|  sn=12 | S(rot)=       0.00924504 Eh      5.80 kcal/mol|
 linear molecules ---------------------------------------
|  Dinfh | S(rot)=       0.00706577 Eh      4.43 kcal/mol|
|  Cinfv | S(rot)=       0.00772023 Eh      4.84 kcal/mol|
 --------------------------------------------------------


-------------------
GIBBS FREE ENERGY
-------------------

The Gibbs free energy is G = H - T*S

Total enthalpy                    ...   -193.97648208 Eh 
Total entropy correction          ...     -0.03374634 Eh    -21.18 kcal/mol
-----------------------------------------------------------------------
Final Gibbs free energy         ...   -194.01022842 Eh

For completeness - the Gibbs free energy minus the electronic energy
G-E(el)                           ...      0.07998430 Eh     50.19 kcal/mol


Maximum memory used throughout the entire PROP-calculation: 24.5 MB
[1770540645.119138] [node213:2936339:0]     ucp_context.c:1234 UCX  WARN  transport 'ib' is not available, please use one or more of: mm, posix, self, shm, sm, sysv, tcp
[1770540645.180190] [node213:2936340:0]     ucp_context.c:1234 UCX  WARN  transport 'ib' is not available, please use one or more of: mm, posix, self, shm, sm, sysv, tcp
[1770540645.248219] [node213:2936343:0]     ucp_context.c:1234 UCX  WARN  transport 'ib' is not available, please use one or more of: mm, posix, self, shm, sm, sysv, tcp
[1770540645.316408] [node213:2936346:0]     ucp_context.c:1234 UCX  WARN  transport 'ib' is not available, please use one or more of: mm, posix, self, shm, sm, sysv, tcp

--------------------------------
SUGGESTED CITATIONS FOR THIS RUN
--------------------------------

Below you find a list of papers that are relevant to this ORCA run
We neither can nor want to force you to cite these papers, but we appreciate if you do
You receive ORCA, which is the product of decades of hard work by many enthusiastic individuals, for free
The only thing we kindly ask in return is that you cite our papers,
We deeply appreciate it, if you show your appreciation for ORCA by not just citing the generic ORCA reference.

Please note that relegating all ORCA citations to the supporting information does *not* help us.
SI sections are not indexed - citations you put there will not count into any citation statistics
But we need these citations in order to attract the funding resources that allow us to do what we are doing

Therefore, if you are a happy ORCA user, please consider citing a few of the papers listed below in the main body of your paper

In addition to the list printed below, the program has created the file IPA_G.bibtex that contains the list in bibtex format
You can import this file easily into all common literature databanks and citation aid programs


List of essential papers. We consider these as the minimum necessary citations

  1. Neese, F.
     Software update: the ORCA program system, version 6.0
     WIRES Comput. Molec. Sci. 2025 15(1), e70019
     doi.org/10.1002/wcms.7019

List of papers to cite with high priority. The work reported in these papers was absolutely
necessary for this run to complete.
Our perspective: the developers of density functionals and basis sets usually get cited in chemistry papers
Good! But without the algorithms to do something with them, the functionals or basis sets would not do anything.
Hence, in our opinion, the algorithm design and method developments papers are equally worthy of getting cited

  1. Neese, F.
     An improvement of the resolution of the identity approximation for the formation of the Coulomb matrix
     J. Comp. Chem. 2003 24(14), 1740-1747
     doi.org/10.1002/jcc.10318
  2. Neese, F.; Wennmohs, F.; Hansen, A.; Becker, U.
     Efficient, approximate and parallel Hartree-Fock and hybrid DFT calculations. A 'chain-of-spheres' algorithm for the Hartree-Fock exchange
     Chem. Phys. 2009 356(1-3), 98-109
     doi.org/10.1016/j.chemphys.2008.10.036
  3. Bykov, D.; Petrenko, T.; Izsak, R.; Kossmann, S.; Becker, U.; Valeev, E.; Neese, F.
     Efficient implementation of the analytic second derivatives of Hartree-Fock and hybrid DFT energies: a detailed analysis of different approximations
     Molec. Phys. 2015 113 , 1961-1977
     doi.org/10.1080/00268976.2015.1025114
  4. Helmich-Paris, B.; de Souza, B.; Neese, F.; Izsák, R.
     An improved chain of spheres for exchange algorithm
     J. Chem. Phys. 2021 155(10), 104109
     doi.org/10.1063/5.0058766
  5. Neese, F.
     The SHARK Integral Generation and Digestion System
     J. Comp. Chem. 2022 44(3), 381
     doi.org/10.1002/jcc.26942

List of suggested additional citations. These are papers that are important in the 'surrounding' of 
of this run, or papers that preceded the highly important papers. If you like your results we are grateful for a citation.

  1. Izsak, R.; Neese, F.
     An overlap fitted chain of spheres exchange method
     J. Chem. Phys. 2011 135 , 144105
     doi.org/10.1063/1.3646921
  2. Izsak, R.; Hansen, A.; Neese, F.
     The resolution of identity and chain of spheres approximations for the LPNO-CCSD singles Fock term
     Molec. Phys. 2012 110 , 2413-2417
     doi.org/10.1080/00268976.2012.687466
  3. Neese, F.
     The ORCA program system
     WIRES Comput. Molec. Sci. 2012 2(1), 73-78
     doi.org/10.1002/wcms.81
  4. Izsak, R.; Neese, F.; Klopper, W.
     Robust fitting techniques in the chain of spheres approximation to the Fock exchange: The role of the complementary space
     J. Chem. Phys. 2013 139 , 
     doi.org/10.1063/1.4819264
  5. Neese, F.
     Software update: the ORCA program system, version 4.0
     WIRES Comput. Molec. Sci. 2018 8(1), 1-6
     doi.org/10.1002/wcms.1327
  6. Neese, F.; Wennmohs, F.; Becker, U.; Riplinger, C.
     The ORCA quantum chemistry program package
     J. Chem. Phys. 2020 152(22), 224108
     doi.org/10.1063/5.0004608
  7. Neese, F.
     Software update: The ORCA program system—Version 5.0
     WIRES Comput. Molec. Sci. 2022 12(1), e1606
     doi.org/10.1002/wcms.1606

List of optional additional citations

  1. Neese, F.
     Approximate second-order SCF convergence for spin unrestricted wavefunctions
     Chem. Phys. Lett. 2000 325(1-3), 93-98
     doi.org/10.1016/s0009-2614(00)00662-x

Timings for individual modules:

Sum of individual times          ...      158.818 sec (=   2.647 min)
Startup calculation              ...       17.314 sec (=   0.289 min)  10.9 %
SCF iterations                   ...       50.952 sec (=   0.849 min)  32.1 %
Property integrals               ...       21.879 sec (=   0.365 min)  13.8 %
SCF Response                     ...        5.561 sec (=   0.093 min)   3.5 %
Property calculations            ...       29.927 sec (=   0.499 min)  18.8 %
SCF Gradient evaluation          ...       33.120 sec (=   0.552 min)  20.9 %
Geometry relaxation              ...        0.064 sec (=   0.001 min)   0.0 %
                             ****ORCA TERMINATED NORMALLY****
TOTAL RUN TIME: 0 days 0 hours 2 minutes 52 seconds 122 msec
