
                                 *****************
                                 * O   R   C   A *
                                 *****************

                                            #,                                       
                                            ###                                      
                                            ####                                     
                                            #####                                    
                                            ######                                   
                                           ########,                                 
                                     ,,################,,,,,                         
                               ,,#################################,,                 
                          ,,##########################################,,             
                       ,#########################################, ''#####,          
                    ,#############################################,,   '####,        
                  ,##################################################,,,,####,       
                ,###########''''           ''''###############################       
              ,#####''   ,,,,##########,,,,          '''####'''          '####       
            ,##' ,,,,###########################,,,                        '##       
           ' ,,###''''                  '''############,,,                           
         ,,##''                                '''############,,,,        ,,,,,,###''
      ,#''                                            '''#######################'''  
     '                                                          ''''####''''         
             ,#######,   #######,   ,#######,      ##                                
            ,#'     '#,  ##    ##  ,#'     '#,    #''#        ,####,    ,#,          
            ##       ##  ##   ,#'  ##            #'  '#       #'       ,# #          
            ##       ##  #######   ##           ,######,      #####,      #          
            '#,     ,#'  ##    ##  '#,     ,#' ,#      #,     #,   #      #          
             '#######'   ##     ##  '#######'  #'      '#     '####' #    #          



                #########################################################
                #                        -***-                          #
                #          Department of theory and spectroscopy        #
                #                                                       #
                #                      Frank Neese                      #
                #                                                       #
                #     Directorship, Architecture, Infrastructure        #
                #                    SHARK, DRIVERS                     #
                #        Core code/Algorithms in most modules           #
                #                                                       #
                #        Max Planck Institute fuer Kohlenforschung      #
                #                Kaiser Wilhelm Platz 1                 #
                #                 D-45470 Muelheim/Ruhr                 #
                #                      Germany                          #
                #                                                       #
                #                  All rights reserved                  #
                #                        -***-                          #
                #########################################################


                         Program Version 6.1.0  -  RELEASE   -
                                (GIT: $679e74b$)
                          ($2025-06-10 18:02:51 +0200$)


 With contributions from (in alphabetic order):
[Max-Planck-Institut fuer Kohlenforschung]                               
  Daniel Aravena         : Magnetic Suceptibility                        
  Michael Atanasov       : Ab Initio Ligand Field Theory (pilot matlab implementation)
  Alexander A. Auer      : GIAO ZORA, VPT2 properties, NMR spectrum      
  Ute Becker             : All parallelization in ORCA, NUMFREQ, NUMCALC 
  Giovanni Bistoni       : ED, misc. LED, open-shell LED, HFLD           
  Dmytro Bykov           : pre 5.0 version of the SCF Hessian            
  Marcos Casanova-Páez   : Triplet and SCS-CIS(D). UHF-(DLPNO)-IP/EA/STEOM-CCSD. UHF-CVS-IP/STEOM-CCSD   
  Vijay G. Chilkuri      : MRCI spin determinant printing, contributions to CSF-ICE 
  Pauline Colinet        : FMM embedding                                 
  Dipayan Datta          : RHF DLPNO-CCSD density                        
  Achintya Kumar Dutta   : EOM-CC, STEOM-CC                              
  Nicolas Foglia         : Exact transition moments, OPA infrastructure, MCD improvements    
  Dmitry Ganyushin       : Spin-Orbit,Spin-Spin,Magnetic field MRCI      
  Miquel Garcia-Rates    : C-PCM and meta-GGA Hessian, CCSD/C-PCM, Gaussian charge scheme 
  Tiago L. C. Gouveia    : GS-ROHF, GS-ROCIS                             
  Yang Guo               : DLPNO-NEVPT2, F12-NEVPT2, CIM, IAO-localization        
  Andreas Hansen         : Spin unrestricted coupled pair/coupled cluster methods 
  Ingolf Harden          : AUTO-CI MPn and infrastructure                
  Benjamin Helmich-Paris : MC-RPA, TRAH-(SCF,CASSCF), AVAS, COSX integrals, SCF dyn. polar., MC-PDFT, srDFT 
  Lee Huntington         : MR-EOM, pCC                                   
  Robert Izsak           : Overlap fitted RIJCOSX, COSX-SCS-MP3, EOM     
  Riya Kayal             : Wick's Theorem for AUTO-CI, AUTO-CI UHF-CCSDT 
  Emily Kempfer          : AUTO-CI RHF CISDT and CCSDT, approximate NEVPT4
  Christian Kollmar      : KDIIS, OOCD, Brueckner-CCSD(T), CCSD density, CASPT2, CASPT2-K, improved NEVPT2 
  Axel Koslowski         : Symmetry handling                             
  Simone Kossmann        : meta-GGA functionals, TD-DFT gradient, OOMP2, (MP2 Hessian; deprecated post 5.0) 
  Lucas Lang             : DCDCAS, Hyperfine gauge corrections, ICE-SOC+SSC
  Marvin Lechner         : AUTO-CI (C++ implementation), FIC-MRCC        
  Spencer Leger          : CASSCF response                               
  Dagmar Lenk            : GEPOL surface, SMD, ORCA-2-JSON               
  Dimitrios Liakos       : Extrapolation schemes; Compound Job, Property file
  Dimitrios Manganas     : Further ROCIS development; embedding schemes. LFT, Crystal Embedding 
  Dimitrios Pantazis     : SARC Basis sets                               
  Anastasios Papadopoulos: AUTO-CI, single reference methods and gradients 
  Taras Petrenko         : pre 6.0 DFT Hessian and TD-DFT gradient,  ECA, NRVS 
  Petra Pikulova         : Analytic Raman intensities                    
  Peter Pinski           : DLPNO-MP2, DLPNO-MP2 Gradient                 
  Shashank Vittal Rao    : ES-AILFT, MagRelax                            
  Christoph Reimann      : Effective Core Potentials                     
  Marius Retegan         : Local ZFS, SOC                                
  Christoph Riplinger    : Optimizer, TS searches, QM/MM, DLPNO-CCSD(T), (RO)-DLPNO pert. Triples 
  Michael Roemelt        : Original ROCIS implementation, recursive CI coupling coefficients
  Masaaki Saitow         : Open-shell DLPNO-CCSD energy and density      
  Barbara Sandhoefer     : DKH picture change effects                    
  Yorick L. A. Schmerwitz: GMF and freeze-and-release deltaSCF, NEB S-IDPP initial path                    
  Kantharuban Sivalingam : CASSCF convergence/infrastructure, NEVPT2, NEVPT3, NEVPT4(SD), FIC-MRCI and CEPA variants
  Bernardo de Souza      : ESD, SOC TD-DFT                               
  Georgi L. Stoychev     : AutoAux, RI-MP2 NMR, DLPNO-MP2 response, X2C  
  Van Anh Tran           : RI-MP2 g-tensors                              
  Willem Van den Heuvel  : Paramagnetic NMR                              
  Zikuan Wang            : NOTCH, Electric field optimization            
  Frank Wennmohs         : Technical directorship and infrastructure     
  Hang Xu                : AUTO-CI-Response properties                   
                                                                         
[FACCTs GmbH]                                                            
  Markus Bursch, Nicolas Foglia, Miquel Garcia-Rates, Ingolf Harden, Hagen Neugebauer, Anastasios Papadopoulos, 
  Christoph Riplinger, Bernardo de Souza, Georgi L. Stoychev                                                    
                                                                 
  APM, various basis sets, CI-OPT, improved COSX, DLPNO-Multilevel,           
  DOCKER, DRACO, updates on ESD, Fragmentator, GOAT, IRC, LR-CPCM, L-BFGS, MBIS, meta-GGA TD-DFT gradient, ML-optimized integration grids, 
  MM, NACMEs, nearIR, NEB, NEB-TS, NL-DFT gradient (VV10), 2- and 3-layer-ONIOM, interface openCOSMO-RS, QMMM,   
  Crystal-QMMM, RESP, rigid body optimization, SF, symmetry and pop. for TD-DFT, various functionals, SOLVATOR                                   
                                                                         
[Other institutions]                                                     
  V. Asgeirsson          : NEB                                           
  Christoph Bannwarth    : sTDA-DFT, sTD-DFT, PBEh-3c, B97-3c, D3        
  Giovanni Bistoni       : ETS/NOCV, ADLD/ADEX, COVALED                  
  Martin Brehm           : Molecular dynamics                            
  Ronald Cardenas        : ETS/NOCV                                      
  Martina Colucci        : COVALED                                       
  Sebastian Ehlert       : rSCAN, r2SCAN, r2SCAN-3c, D4, dhf basis sets  
  Marvin Friede          : D4 for Fr, Ra, Ac-Lr                          
  Lars Goerigk           : TD-DFT with DH, B97 family of functionals     
  Stefan Grimme          : VdW corrections, initial TS optimization, DFT functionals, gCP, sTDA/sTD-DF 
  Waldemar Hujo          : DFT-NL                                        
  H. Jonsson             : NEB                                           
  Holger Kruse           : gCP                                           
  Marcel Mueller         : wB97X-3c, vDZP basis set                      
  Hagen Neugebauer       : wr2SCAN, Native XTB                           
  Gianluca Regni         : ADLD/ADEX                                     
  Tobias Risthaus        : pre 6.0 range-separated hybrid DFT and stability analysis
  Lukas Wittmann         : regularized MP2, r2SCAN double-hybrids, wr2SCAN        
                                                                         
We gratefully acknowledge several colleagues who have allowed us to      
interface, adapt or use parts of their codes:                            
  Ed Valeev, F. Pavosevic, A. Kumar             : LibInt (2-el integral package), F12 methods 
  Garnet Chan, S. Sharma, J. Yang, R. Olivares  : DMRG                   
  Ulf Ekstrom                                   : XCFun DFT Library      
  Mihaly Kallay                                 : mrcc  (arbitrary order and MRCC methods)
  Frank Weinhold                                : gennbo (NPA and NBO analysis)           
  Simon Mueller                                 : openCOSMO-RS                            
  Christopher J. Cramer and Donald G. Truhlar   : smd solvation model                     
  S Lehtola, MJT Oliveira, MAL Marques          : LibXC Library                           
  Liviu Ungur et al                             : ANISO software                          


 Your calculation uses the libint2 library for the computation of 2-el integrals
 For citations please refer to: http://libint.valeyev.net

 Your ORCA version has been built with support for libXC version: 7.0.0
 For citations please refer to: https://libxc.gitlab.io

 This ORCA versions uses:
   CBLAS   interface :  Fast vector & matrix operations
   LAPACKE interface :  Fast linear algebra routines
   SCALAPACK package :  Parallel linear algebra routines
   Shared memory     :  Shared parallel matrices
   BLAS/LAPACK       :  OpenBLAS 0.3.29  USE64BITINT DYNAMIC_ARCH NO_AFFINITY Haswell SINGLE_THREADED
        Core in use  :  Haswell
   Copyright (c) 2011-2014, The OpenBLAS Project


  ***********************************
  * Starting time: Sun Feb  8 09:46:44 2026
  * Host name:     node213.cluster
  * Process ID:    2934316
  * Working dir.:  /data/scratch/56927705
  ***********************************

NOTE: MaxCore=1500 MB was set to SCF,MP2,MDCI,CIPSI,MRCI,RASCI and CIS
      => If you want to overwrite this, your respective input block should be placed after the MaxCore statement
Warning: RI is on but no J-basis has been assigned. Assigning Def2/J (nothing to worry about!)
================================================================================

----- Orbital basis set information -----
Your calculation utilizes the basis: def2-SVP
   F. Weigend and R. Ahlrichs, Phys. Chem. Chem. Phys. 7, 3297 (2005).

----- AuxJ basis set information -----
Your calculation utilizes the auxiliary basis: def2/J
   H-Rn: F. Weigend, Phys. Chem. Chem. Phys. 8, 1057 (2006).
   Fr-Lr: K. Eichkorn, F. Weigend, O. Treutler, R. Ahlrichs; Theor. Chem. Acc. 97, 119 (1997).

================================================================================
                                        WARNINGS
                       Please study these warnings very carefully!
================================================================================


WARNING: Geometry Optimization
  ===> : Switching off AutoStart
         For restart on a previous wavefunction, please use MOREAD

================================================================================
                                       INPUT FILE
================================================================================
NAME = IPA_T.inp
|  1> ! b3lyp opt freq
|  2> 
|  3> 
|  4>  %pal 
|  5>  nprocs 4 
|  6>  end 
|  7>  
|  8>  %maxcore 1500 
|  9>  
| 10>  * XYZ 0 1
| 11> C     -2.5932351872   -0.8890679560    1.3094586836
| 12> O     -1.1712091745   -0.9888189248    1.2986575522
| 13> C     -3.1815620781   -2.0848278307    0.5694300759
| 14> H     -0.8749911725   -0.8994002497    0.3754368477
| 15> H     -3.1802371417    0.3315009731   -0.3982130742
| 16> C     -3.0204369247    0.4353249673    0.6819107736
| 17> H     -3.9629312362    0.7807507151    1.1229384675
| 18> H     -2.7786801564   -2.1471778571   -0.4505394022
| 19> H     -2.9107223189   -0.9115950188    2.3587038791
| 20> H     -2.2584035646    1.2093448566    0.8276300402
| 21> H     -4.2731301508   -2.0290468592    0.5181076948
| 22> H     -2.8964524376   -3.0177078360    1.0742845291
| 23> *
| 24> 
| 25>                          ****END OF INPUT****
================================================================================

                       *****************************
                       * Geometry Optimization Run *
                       *****************************

Geometry optimization settings:
Update method            Update   .... BFGS
Choice of coordinates    CoordSys .... (2022) Redundant Internals
Initial Hessian          InHess   .... Almloef's Model
Max. no of cycles        MaxIter  .... 50

Convergence Tolerances:
Energy Change            TolE     ....  5.0000e-06 Eh
Max. Gradient            TolMAXG  ....  3.0000e-04 Eh/bohr
RMS Gradient             TolRMSG  ....  1.0000e-04 Eh/bohr
Max. Displacement        TolMAXD  ....  4.0000e-03 bohr
RMS Displacement         TolRMSD  ....  2.0000e-03 bohr
Strict Convergence                .... False

------------------------------------------------------------------------------
                        ORCA OPTIMIZATION COORDINATE SETUP
------------------------------------------------------------------------------

The optimization will be done in redundant internal coordinates (2022)
Making redundant internal coordinates   ...  (2022 redundants) done
Evaluating the initial hessian          ...  (Almloef) done
Evaluating the coordinates              ...  done
Calculating the B-matrix                .... done
Calculating the G-matrix                .... done
The number of degrees of freedom        ....   45

    -----------------------------------------------------------------
                    Redundant Internal Coordinates


    -----------------------------------------------------------------
         Definition                    Initial Value    Approx d2E/dq
    -----------------------------------------------------------------
      1. B(O   1,C   0)                  1.4256         0.491066   
      2. B(C   2,C   0)                  1.5243         0.381424   
      3. B(H   3,O   1)                  0.9737         0.494449   
      4. B(C   5,H   4)                  1.0968         0.351208   
      5. B(C   5,C   0)                  1.5265         0.378349   
      6. B(H   6,C   5)                  1.0964         0.351716   
      7. B(H   7,C   2)                  1.0984         0.349125   
      8. B(H   8,C   0)                  1.0965         0.351657   
      9. B(H   9,C   5)                  1.0959         0.352356   
     10. B(H  10,C   2)                  1.0942         0.354591   
     11. B(H  11,C   2)                  1.0984         0.349188   
     12. A(O   1,C   0,C   2)          109.0522         0.379833   
     13. A(O   1,C   0,H   8)          107.1367         0.335954   
     14. A(O   1,C   0,C   5)          109.6788         0.379300   
     15. A(C   5,C   0,H   8)          109.2798         0.323732   
     16. A(C   2,C   0,C   5)          111.8996         0.365439   
     17. A(C   2,C   0,H   8)          109.6758         0.324163   
     18. A(C   0,O   1,H   3)          107.7115         0.352648   
     19. A(C   0,C   2,H  10)          111.5805         0.324605   
     20. A(H  10,C   2,H  11)          108.8933         0.288740   
     21. A(H   7,C   2,H  11)          106.4626         0.288039   
     22. A(C   0,C   2,H  11)          110.0551         0.323788   
     23. A(H   7,C   2,H  10)          108.9801         0.288732   
     24. A(C   0,C   2,H   7)          110.7178         0.323778   
     25. A(H   6,C   5,H   9)          108.7674         0.288781   
     26. A(H   4,C   5,H   6)          107.5002         0.288633   
     27. A(H   4,C   5,H   9)          107.4040         0.288715   
     28. A(C   0,C   5,H   9)          111.3151         0.323838   
     29. A(C   0,C   5,H   6)          110.3977         0.323741   
     30. A(C   0,C   5,H   4)          111.3144         0.323664   
     31. D(H   3,O   1,C   0,C   5)    -57.1336         0.019044   
     32. D(H   3,O   1,C   0,H   8)   -175.6380         0.019044   
     33. D(H   3,O   1,C   0,C   2)     65.7260         0.019044   
     34. D(H   7,C   2,C   0,H   8)   -173.1936         0.011591   
     35. D(H   7,C   2,C   0,C   5)     65.3621         0.011591   
     36. D(H  10,C   2,C   0,C   5)    -56.2079         0.011591   
     37. D(H   7,C   2,C   0,O   1)    -56.1580         0.011591   
     38. D(H  10,C   2,C   0,H   8)     65.2364         0.011591   
     39. D(H  10,C   2,C   0,O   1)   -177.7279         0.011591   
     40. D(H   6,C   5,C   0,C   2)     88.7251         0.011414   
     41. D(H   6,C   5,C   0,O   1)   -150.1166         0.011414   
     42. D(H   4,C   5,C   0,H   8)   -152.2529         0.011414   
     43. D(H   4,C   5,C   0,C   2)    -30.5805         0.011414   
     44. D(H   6,C   5,C   0,H   8)    -32.9473         0.011414   
     45. D(H   4,C   5,C   0,O   1)     90.5778         0.011414   
    -----------------------------------------------------------------

Number of atoms                         .... 12
Number of degrees of freedom            .... 45


         *************************************************************
         *                GEOMETRY OPTIMIZATION CYCLE   1            *
         *************************************************************
---------------------------------
CARTESIAN COORDINATES (ANGSTROEM)
---------------------------------
  C     -2.593235   -0.889068    1.309459
  O     -1.171209   -0.988819    1.298658
  C     -3.181562   -2.084828    0.569430
  H     -0.874991   -0.899400    0.375437
  H     -3.180237    0.331501   -0.398213
  C     -3.020437    0.435325    0.681911
  H     -3.962931    0.780751    1.122938
  H     -2.778680   -2.147178   -0.450539
  H     -2.910722   -0.911595    2.358704
  H     -2.258404    1.209345    0.827630
  H     -4.273130   -2.029047    0.518108
  H     -2.896452   -3.017708    1.074285

----------------------------
CARTESIAN COORDINATES (A.U.)
----------------------------
  NO LB      ZA    FRAG     MASS         X           Y           Z
   0 C     6.0000    0    12.011   -4.900504   -1.680095    2.474518
   1 O     8.0000    0    15.999   -2.213265   -1.868597    2.454107
   2 C     6.0000    0    12.011   -6.012281   -3.939754    1.076067
   3 H     1.0000    0     1.008   -1.653494   -1.699620    0.709473
   4 H     1.0000    0     1.008   -6.009777    0.626446   -0.752514
   5 C     6.0000    0    12.011   -5.707799    0.822645    1.288625
   6 H     1.0000    0     1.008   -7.488855    1.475405    2.122046
   7 H     1.0000    0     1.008   -5.250945   -4.057578   -0.851396
   8 H     1.0000    0     1.008   -5.500468   -1.722665    4.457304
   9 H     1.0000    0     1.008   -4.267764    2.285331    1.563994
  10 H     1.0000    0     1.008   -8.075046   -3.834343    0.979082
  11 H     1.0000    0     1.008   -5.473502   -5.702641    2.030104

--------------------------------
INTERNAL COORDINATES (ANGSTROEM)
--------------------------------
 C      0   0   0     0.000000000000     0.00000000     0.00000000
 O      1   0   0     1.425561258246     0.00000000     0.00000000
 C      1   2   0     1.524340037102   109.05221440     0.00000000
 H      2   1   3     0.973692596964   107.71153776    65.72596867
 H      1   2   3     2.179564781707   107.57186884   266.59428050
 C      5   1   2     1.096805843215    40.72900789   260.97901647
 H      6   5   1     1.096412286159   107.50015158   238.98228461
 H      3   1   2     1.098425739356   110.71780776   303.84203725
 H      1   2   3     1.096458402145   107.13665576   118.63602097
 H      6   5   1     1.095917759504   107.40399941   122.08719720
 H      3   1   2     1.094196673785   111.58053295   182.27209101
 H      3   1   2     1.098376360958   110.05507451    61.26878616

---------------------------
INTERNAL COORDINATES (A.U.)
---------------------------
 C      0   0   0     0.000000000000     0.00000000     0.00000000
 O      1   0   0     2.693920365213     0.00000000     0.00000000
 C      1   2   0     2.880585205095   109.05221440     0.00000000
 H      2   1   3     1.840012346889   107.71153776    65.72596867
 H      1   2   3     4.118780528567   107.57186884   266.59428050
 C      5   1   2     2.072662665761    40.72900789   260.97901647
 H      6   5   1     2.071918950706   107.50015158   238.98228461
 H      3   1   2     2.075723825833   110.71780776   303.84203725
 H      1   2   3     2.072006097290   107.13665576   118.63602097
 H      6   5   1     2.070984430763   107.40399941   122.08719720
 H      3   1   2     2.067732050100   111.58053295   182.27209101
 H      3   1   2     2.075630514183   110.05507451    61.26878616

---------------------
BASIS SET INFORMATION
---------------------
There are 3 groups of distinct atoms

 Group   1 Type C   : 7s4p1d contracted to 3s2p1d pattern {511/31/1}
 Group   2 Type O   : 7s4p1d contracted to 3s2p1d pattern {511/31/1}
 Group   3 Type H   : 4s1p contracted to 2s1p pattern {31/1}

Atom   0C    basis set group =>   1
Atom   1O    basis set group =>   2
Atom   2C    basis set group =>   1
Atom   3H    basis set group =>   3
Atom   4H    basis set group =>   3
Atom   5C    basis set group =>   1
Atom   6H    basis set group =>   3
Atom   7H    basis set group =>   3
Atom   8H    basis set group =>   3
Atom   9H    basis set group =>   3
Atom  10H    basis set group =>   3
Atom  11H    basis set group =>   3
---------------------------------
AUXILIARY/J BASIS SET INFORMATION
---------------------------------
There are 3 groups of distinct atoms

 Group   1 Type C   : 12s5p4d2f1g contracted to 6s4p3d1f1g pattern {711111/2111/211/2/1}
 Group   2 Type O   : 12s5p4d2f1g contracted to 6s4p3d1f1g pattern {711111/2111/211/2/1}
 Group   3 Type H   : 5s2p1d contracted to 3s1p1d pattern {311/2/1}

Atom   0C    basis set group =>   1
Atom   1O    basis set group =>   2
Atom   2C    basis set group =>   1
Atom   3H    basis set group =>   3
Atom   4H    basis set group =>   3
Atom   5C    basis set group =>   1
Atom   6H    basis set group =>   3
Atom   7H    basis set group =>   3
Atom   8H    basis set group =>   3
Atom   9H    basis set group =>   3
Atom  10H    basis set group =>   3
Atom  11H    basis set group =>   3
[1770540405.635199] [node213:2934335:0]     ucp_context.c:1234 UCX  WARN  transport 'ib' is not available, please use one or more of: mm, posix, self, shm, sm, sysv, tcp
[1770540405.635353] [node213:2934334:0]     ucp_context.c:1234 UCX  WARN  transport 'ib' is not available, please use one or more of: mm, posix, self, shm, sm, sysv, tcp
[1770540405.635350] [node213:2934333:0]     ucp_context.c:1234 UCX  WARN  transport 'ib' is not available, please use one or more of: mm, posix, self, shm, sm, sysv, tcp
[1770540405.635393] [node213:2934336:0]     ucp_context.c:1234 UCX  WARN  transport 'ib' is not available, please use one or more of: mm, posix, self, shm, sm, sysv, tcp


           ************************************************************
           *        Program running with 4 parallel MPI-processes     *
           *              working on a common directory               *
           ************************************************************
------------------------------------------------------------------------------
                             ORCA STARTUP CALCULATIONS
                           -- RI-GTO INTEGRALS CHOSEN --
------------------------------------------------------------------------------
------------------------------------------------------------------------------
                   ___                                                        
                  /   \      - P O W E R E D   B Y -                         
                 /     \                                                     
                 |  |  |   _    _      __       _____    __    __             
                 |  |  |  | |  | |    /  \     |  _  \  |  |  /  |          
                  \  \/   | |  | |   /    \    | | | |  |  | /  /          
                 / \  \   | |__| |  /  /\  \   | |_| |  |  |/  /          
                |  |  |   |  __  | /  /__\  \  |    /   |      \           
                |  |  |   | |  | | |   __   |  |    \   |  |\   \          
                \     /   | |  | | |  |  |  |  | |\  \  |  | \   \       
                 \___/    |_|  |_| |__|  |__|  |_| \__\ |__|  \__/        
                                                                              
                      - O R C A' S   B I G   F R I E N D -                    
                                      &                                       
                       - I N T E G R A L  F E E D E R -                       
                                                                              
 v1 FN, 2020, v2 2021, v3 2022-2024                                           
------------------------------------------------------------------------------


----------------------
SHARK INTEGRAL PACKAGE
----------------------

Number of atoms                             ...     12
Number of basis functions                   ...     96
Number of shells                            ...     48
Maximum angular momentum                    ...      2
Integral batch strategy                     ... SHARK/LIBINT Hybrid
RI-J (if used) integral strategy            ... SPLIT-RIJ (Revised 2003 algorithm where possible)
Printlevel                                  ...      1
Contraction scheme used                     ... SEGMENTED contraction
Prescreening option                         ... SCHWARTZ
   Thresh                                   ... 2.500e-11
   Tcut                                     ... 2.500e-12
   Tpresel                                  ... 2.500e-12 
Coulomb Range Separation                    ... NOT USED
Exchange Range Separation                   ... NOT USED
Multipole approximations                    ... NOT USED
Finite Nucleus Model                        ... NOT USED
CABS basis                                  ... NOT available
Auxiliary Coulomb fitting basis             ... AVAILABLE
   # of basis functions in Aux-J            ...    284
   # of shells in Aux-J                     ...    100
   Maximum angular momentum in Aux-J        ...      4
Auxiliary J/K fitting basis                 ... NOT available
Auxiliary Correlation fitting basis         ... NOT available
Auxiliary 'external' fitting basis          ... NOT available

Checking pre-screening integrals            ... done (  0.0 sec) Dimension = 48
   => SHARK Basis and OBASIS are compatible. Storing Pre-screening
Shell pair information
Shell pair cut-off parameter TPreSel        ...   2.5e-12
Total number of shell pairs                 ...      1176
Shell pairs after pre-screening             ...      1170
Total number of primitive shell pairs       ...      3992
Primitive shell pairs kept                  ...      3311
          la=0 lb=0:    403 shell pairs
          la=1 lb=0:    445 shell pairs
          la=1 lb=1:    136 shell pairs
          la=2 lb=0:    112 shell pairs
          la=2 lb=1:     64 shell pairs
          la=2 lb=2:     10 shell pairs

Checking whether 4 symmetric matrices of dimension 96 fit in memory
:Max Core in MB      =   1500.00
 MB in use           =      4.78
 MB left             =   1495.22
 MB needed           =      0.14
 Data fit in memory  = YES
Calculating RI/J V-Matrix + Cholesky decomp.... done (  0.0 sec)
Calculating Nuclear repulsion               ... done (  0.0 sec) ENN=    134.830790309950 Eh

Diagonalization of the overlap matrix:
Smallest eigenvalue                        ... 2.191e-03
Time for diagonalization                   ...    0.003 sec
Threshold for overlap eigenvalues          ... 1.000e-07
Number of eigenvalues below threshold      ... 0
Time for construction of square roots      ...    0.002 sec
Total time needed                          ...    0.006 sec

-------------------
DFT GRID GENERATION
-------------------

General Integration Accuracy     IntAcc      ... 4.388
Radial Grid Type                 RadialGrid  ... OptM3 with GC (2021)
Angular Grid (max. ang.)         AngularGrid ... 4 (Lebedev-302)
Angular grid pruning method      GridPruning ... 4 (adaptive)
Weight generation scheme         WeightScheme... mBecke (2022)
Basis function cutoff            BFCut       ... 1.0000e-11
Integration weight cutoff        WCut        ... 1.0000e-14
Partially contracted basis set               ... off
Rotationally invariant grid construction     ... off
Angular grids for H and He will be reduced by one unit

Total number of grid points                  ...    50043
Total number of batches                      ...      789
Average number of points per batch           ...       63
Average number of grid points per atom       ...     4170

--------------------
COSX GRID GENERATION
--------------------

GRIDX 1
-------
General Integration Accuracy     IntAcc      ... 3.816
Radial Grid Type                 RadialGrid  ... OptM3 with GC (2021)
Angular Grid (max. ang.)         AngularGrid ... 1 (Lebedev-50)
Angular grid pruning method      GridPruning ... 4 (adaptive)
Weight generation scheme         WeightScheme... mBecke (2022)
Basis function cutoff            BFCut       ... 1.0000e-11
Integration weight cutoff        WCut        ... 1.0000e-14
Partially contracted basis set               ... on
Rotationally invariant grid construction     ... off
Angular grids for H and He will be reduced by one unit

Total number of grid points                  ...     6453
Total number of batches                      ...       59
Average number of points per batch           ...      109
Average number of grid points per atom       ...      538
UseSFitting                                  ... on

GRIDX 2
-------
General Integration Accuracy     IntAcc      ... 4.020
Radial Grid Type                 RadialGrid  ... OptM3 with GC (2021)
Angular Grid (max. ang.)         AngularGrid ... 2 (Lebedev-110)
Angular grid pruning method      GridPruning ... 4 (adaptive)
Weight generation scheme         WeightScheme... mBecke (2022)
Basis function cutoff            BFCut       ... 1.0000e-11
Integration weight cutoff        WCut        ... 1.0000e-14
Partially contracted basis set               ... on
Rotationally invariant grid construction     ... off
Angular grids for H and He will be reduced by one unit

Total number of grid points                  ...    13450
Total number of batches                      ...      111
Average number of points per batch           ...      121
Average number of grid points per atom       ...     1121
UseSFitting                                  ... on

GRIDX 3
-------
General Integration Accuracy     IntAcc      ... 4.338
Radial Grid Type                 RadialGrid  ... OptM3 with GC (2021)
Angular Grid (max. ang.)         AngularGrid ... 3 (Lebedev-194)
Angular grid pruning method      GridPruning ... 4 (adaptive)
Weight generation scheme         WeightScheme... mBecke (2022)
Basis function cutoff            BFCut       ... 1.0000e-11
Integration weight cutoff        WCut        ... 1.0000e-14
Partially contracted basis set               ... on
Rotationally invariant grid construction     ... off
Angular grids for H and He will be reduced by one unit

Total number of grid points                  ...    29480
Total number of batches                      ...      237
Average number of points per batch           ...      124
Average number of grid points per atom       ...     2457
UseSFitting                                  ... on
Grids setup in   0.5 sec
Initializing property integral containers    ... done (  0.0 sec)

SHARK setup successfully completed in   0.7 seconds

Maximum memory used throughout the entire STARTUP-calculation: 15.3 MB
[1770540408.164178] [node213:2934353:0]     ucp_context.c:1234 UCX  WARN  transport 'ib' is not available, please use one or more of: mm, posix, self, shm, sm, sysv, tcp
[1770540408.164341] [node213:2934354:0]     ucp_context.c:1234 UCX  WARN  transport 'ib' is not available, please use one or more of: mm, posix, self, shm, sm, sysv, tcp
[1770540408.168968] [node213:2934355:0]     ucp_context.c:1234 UCX  WARN  transport 'ib' is not available, please use one or more of: mm, posix, self, shm, sm, sysv, tcp
[1770540408.234740] [node213:2934356:0]     ucp_context.c:1234 UCX  WARN  transport 'ib' is not available, please use one or more of: mm, posix, self, shm, sm, sysv, tcp


           ************************************************************
           *        Program running with 4 parallel MPI-processes     *
           *              working on a common directory               *
           ************************************************************
-------------------------------------------------------------------------------
                                 ORCA GUESS
                   Start orbitals & Density for SCF / CASSCF
-------------------------------------------------------------------------------

------------
SCF SETTINGS
------------
Hamiltonian:
 Density Functional     Method          .... DFT(GTOs)
 Exchange Functional    Exchange        .... B88
   X-Alpha parameter    XAlpha          ....  0.666667
   Becke's b parameter  XBeta           ....  0.004200
 Correlation Functional Correlation     .... LYP
 LDA part of GGA corr.  LDAOpt          .... VWN-5
 Gradients option       PostSCFGGA      .... off
 Hybrid DFT is turned on
   Fraction HF Exchange ScalHFX         ....  0.200000
   Scaling of DF-GGA-X  ScalDFX         ....  0.720000
   Scaling of DF-GGA-C  ScalDFC         ....  0.810000
   Scaling of DF-LDA-C  ScalLDAC        ....  1.000000
   Perturbative correction              ....  0.000000
   NL short-range parameter             ....  4.800000
 RI-approximation to the Coulomb term is turned on
   Number of AuxJ basis functions       .... 284
   RIJ-COSX (HFX calculated with COS-X)).... on


General Settings:
 Integral files         IntName         .... IPA_T
 Hartree-Fock type      HFTyp           .... RHF
 Total Charge           Charge          ....    0
 Multiplicity           Mult            ....    1
 Number of Electrons    NEL             ....   34
 Basis Dimension        Dim             ....   96
 Nuclear Repulsion      ENuc            ....    134.8307903099 Eh

Convergence Acceleration:
 AO-DIIS                CNVDIIS         .... on
   Start iteration      DIISMaxIt       ....    12
   Startup error        DIISStart       ....  0.200000
   # of expansion vecs  DIISMaxEq       ....     5
   Bias factor          DIISBfac        ....   1.050
   Max. coefficient     DIISMaxC        ....  10.000
 MO-DIIS                CNVKDIIS        .... off
 Trust-Rad. Augm. Hess. CNVTRAH         .... auto
   Auto Start mean grad. ratio tolernc. ....  1.125000
   Auto Start start iteration           ....    50
   Auto Start num. interpolation iter.  ....    10
   Max. Number of Micro iterations      ....    24
   Max. Number of Macro iterations      .... Maxiter - #DIIS iter
   Number of Davidson start vectors     ....     2
   Converg. threshold    (grad. norm)   ....   1.000e-05
   Grad. Scal. Fac. for Micro threshold ....   0.100
   Minimum threshold for Micro iter.    ....   1.000e-02
   NR start threshold (gradient norm)   ....   1.000e-04
   Initial trust radius                 ....   0.400
   Minimum AH scaling param. (alpha)    ....   1.000
   Maximum AH scaling param. (alpha)    .... 1000.000
   Quad. conv. algorithm                .... NR
   White noise on init. David. guess    .... on
   Maximum white noise                  ....   0.010
   Pseudo random numbers                .... off
   Inactive MOs                         .... canonical
   Orbital update algorithm             .... Taylor
   Preconditioner                       .... Diag
   Full preconditioner red. dimension   ....   250
 SOSCF                 CNVSOSCF           .... on
   Start iteration     SOSCFMaxIt         ....   150
   Startup grad/error  SOSCFStart         ....  0.003300
   Hessian update      SOSCFHessUp        .... L-BFGS
   Autom. constraints  SOSCFAutoConstrain .... off
 Level Shifting         CNVShift        .... on
   Level shift para.    LevelShift      ....    0.2500
   Turn off err/grad.   ShiftErr        ....    0.0010
 Zerner damping         CNVZerner       .... off
 Static damping         CNVDamp         .... on
   Fraction old density DampFac         ....    0.7000
   Max. Damping (<1)    DampMax         ....    0.9800
   Min. Damping (>=0)   DampMin         ....    0.0000
   Turn off err/grad.   DampErr         ....    0.1000

SCF Procedure:
 Maximum # iterations   MaxIter         ....   125
 SCF integral mode      SCFMode         .... Direct
   Integral package                     .... SHARK and LIBINT hybrid scheme
 Reset frequency        DirectResetFreq ....    20
 Integral Threshold     Thresh          ....  2.500e-11 Eh
 Primitive CutOff       TCut            ....  2.500e-12 Eh

Convergence Tolerance:
 Convergence Check Mode ConvCheckMode   .... Total+1el-Energy
 Convergence forced     ConvForced      .... 0
 Energy Change          TolE            ....  1.000e-08 Eh
 1-El. energy change                    ....  1.000e-05 Eh
 Orbital Gradient       TolG            ....  1.000e-05
 Orbital Rotation angle TolX            ....  1.000e-05
 DIIS Error             TolErr          ....  5.000e-07

------------------------------
INITIAL GUESS: MODEL POTENTIAL
------------------------------
Loading Hartree-Fock densities                     ... done
Calculating cut-offs                               ... done
Initializing the effective Hamiltonian             ... done
Setting up the integral package (SHARK)            ... done
Starting the Coulomb interaction                   ... done (   0.0 sec)
Making the grid                                    ... done (   0.1 sec)
Mapping shells                                     ... done
Starting the XC term evaluation                    ... done (   0.0 sec)
  promolecular density results
     # of electrons  =     33.990710762
     EX              =    -25.988415931
     EC              =     -1.104707785
     EX+EC           =    -27.093123716
Transforming the Hamiltonian                       ... done (   0.0 sec)
Diagonalizing the Hamiltonian                      ... done (   0.0 sec)
Back transforming the eigenvectors                 ... done (   0.0 sec)
Now organizing SCF variables                       ... done
                      ------------------
                      INITIAL GUESS DONE (   0.1 sec)
                      ------------------
             **** ENERGY FILE WAS UPDATED (IPA_T.en.tmp) ****
Finished Guess after   0.6 sec
Maximum memory used throughout the entire GUESS-calculation: 7.2 MB
[1770540410.257557] [node213:2934376:0]     ucp_context.c:1234 UCX  WARN  transport 'ib' is not available, please use one or more of: mm, posix, self, shm, sm, sysv, tcp
[1770540410.318049] [node213:2934377:0]     ucp_context.c:1234 UCX  WARN  transport 'ib' is not available, please use one or more of: mm, posix, self, shm, sm, sysv, tcp
[1770540410.448492] [node213:2934380:0]     ucp_context.c:1234 UCX  WARN  transport 'ib' is not available, please use one or more of: mm, posix, self, shm, sm, sysv, tcp
[1770540410.457419] [node213:2934383:0]     ucp_context.c:1234 UCX  WARN  transport 'ib' is not available, please use one or more of: mm, posix, self, shm, sm, sysv, tcp


           ************************************************************
           *        Program running with 4 parallel MPI-processes     *
           *              working on a common directory               *
           ************************************************************

-------------------------------------------------------------------------------------------
                                      ORCA LEAN-SCF
                              memory conserving SCF solver
-------------------------------------------------------------------------------------------

----------------------------------------D-I-I-S--------------------------------------------
Iteration    Energy (Eh)           Delta-E    RMSDP     MaxDP     DIISErr   Damp  Time(sec)
-------------------------------------------------------------------------------------------
               ***  Starting incremental Fock matrix formation  ***
    1    -193.9146832611756395     0.00e+00  9.82e-03  7.97e-02  2.54e-01  0.700   0.6
    2    -193.9949258452664935    -8.02e-02  6.79e-03  4.96e-02  1.11e-01  0.700   0.3
                               ***Turning on AO-DIIS***
    3    -194.0268328706716261    -3.19e-02  2.55e-03  1.51e-02  3.52e-02  0.700   0.3
    4    -194.0453696404263155    -1.85e-02  4.09e-03  2.21e-02  1.84e-02  0.000   0.3
    5    -194.0858371665203208    -4.05e-02  8.12e-04  4.34e-03  5.89e-03  0.000   0.3
                              *** Initializing SOSCF ***
---------------------------------------S-O-S-C-F--------------------------------------
Iteration    Energy (Eh)           Delta-E    RMSDP     MaxDP     MaxGrad    Time(sec)
--------------------------------------------------------------------------------------
    6    -194.0860387979623169    -2.02e-04  3.40e-04  1.86e-03  2.62e-03     0.3
               *** Restarting incremental Fock matrix formation ***
    7    -194.0860915168440783    -5.27e-05  2.05e-04  1.05e-03  2.24e-04     0.4
    8    -194.0860914284553473     8.84e-08  6.96e-05  5.70e-04  3.20e-04     0.3
    9    -194.0860935731478776    -2.14e-06  2.82e-05  1.57e-04  3.95e-05     0.3
   10    -194.0860935598851711     1.33e-08  1.16e-05  7.70e-05  4.27e-05     0.3
   11    -194.0860936115976756    -5.17e-08  1.97e-06  1.06e-05  2.28e-06     0.3
                  *** Gradient check signals convergence ***

               *****************************************************
               *                     SUCCESS                       *
               *           SCF CONVERGED AFTER  11 CYCLES          *
               *****************************************************

Recomputing exchange energy using gridx3       ... done (    0.534 sec)
Old exchange energy                            :     -5.320640015 Eh
New exchange energy                            :     -5.320679922 Eh
Exchange energy change after final integration :     -0.000039907 Eh
Total energy after final integration           :   -194.086133521 Eh
             **** ENERGY FILE WAS UPDATED (IPA_T.en.tmp) ****

----------------
TOTAL SCF ENERGY
----------------

Total Energy       :       -194.08613352119079 Eh           -5281.35219 eV

Components:
Nuclear Repulsion  :        134.83079030994975 Eh            3668.93233 eV
Electronic Energy  :       -328.91688392381661 Eh           -8950.28344 eV
One Electron Energy:       -529.45194819040728 Eh          -14407.11995 eV
Two Electron Energy:        200.53506426659067 Eh            5456.83652 eV

Virial components:
Potential Energy   :       -386.27602966822491 Eh          -10511.10514 eV
Kinetic Energy     :        192.18989614703412 Eh            5229.75295 eV
Virial Ratio       :          2.00986647795837

DFT components:
N(Alpha)           :       16.999977634350 electrons
N(Beta)            :       16.999977634350 electrons
N(Total)           :       33.999955268700 electrons
E(X)               :      -21.102064338445 Eh       
E(C)               :       -1.311827966235 Eh       
E(XC)              :      -22.413892304680 Eh       

---------------
SCF CONVERGENCE
---------------

  Last Energy change         ...    5.1713e-08  Tolerance :   1.0000e-08
  Last MAX-Density change    ...    1.0619e-05  Tolerance :   1.0000e-07
  Last RMS-Density change    ...    1.9657e-06  Tolerance :   5.0000e-09
  Last DIIS Error            ...    2.6210e-03  Tolerance :   5.0000e-07
  Last Orbital Gradient      ...    2.2785e-06  Tolerance :   1.0000e-05
  Last Orbital Rotation      ...    3.5870e-06  Tolerance :   1.0000e-05


----------------
ORBITAL ENERGIES
----------------

  NO   OCC          E(Eh)            E(eV) 
   0   2.0000     -19.114949      -520.1442 
   1   2.0000     -10.228051      -278.3194 
   2   2.0000     -10.174518      -276.8627 
   3   2.0000     -10.173586      -276.8374 
   4   2.0000      -0.994432       -27.0599 
   5   2.0000      -0.757486       -20.6122 
   6   2.0000      -0.680393       -18.5144 
   7   2.0000      -0.591529       -16.0963 
   8   2.0000      -0.474216       -12.9041 
   9   2.0000      -0.465061       -12.6549 
  10   2.0000      -0.424574       -11.5533 
  11   2.0000      -0.406019       -11.0483 
  12   2.0000      -0.389898       -10.6097 
  13   2.0000      -0.356615        -9.7040 
  14   2.0000      -0.350439        -9.5359 
  15   2.0000      -0.312174        -8.4947 
  16   2.0000      -0.260379        -7.0853 
  17   0.0000       0.050490         1.3739 
  18   0.0000       0.086062         2.3419 
  19   0.0000       0.106557         2.8996 
  20   0.0000       0.110045         2.9945 
  21   0.0000       0.126945         3.4543 
  22   0.0000       0.136242         3.7073 
  23   0.0000       0.146552         3.9879 
  24   0.0000       0.162192         4.4135 
  25   0.0000       0.225857         6.1459 
  26   0.0000       0.231965         6.3121 
  27   0.0000       0.255790         6.9604 
*Only the first 10 virtual orbitals were printed.

                    ********************************
                    * MULLIKEN POPULATION ANALYSIS *
                    ********************************

-----------------------
MULLIKEN ATOMIC CHARGES
-----------------------
   0 C :    0.092264
   1 O :   -0.326653
   2 C :    0.033605
   3 H :    0.156362
   4 H :   -0.005546
   5 C :    0.017333
   6 H :    0.007737
   7 H :   -0.008349
   8 H :   -0.001280
   9 H :    0.014994
  10 H :    0.004103
  11 H :    0.015430
Sum of atomic charges:    0.0000000

--------------------------------
MULLIKEN REDUCED ORBITAL CHARGES
--------------------------------
  0 C s       :     3.063176  s :     3.063176
      pz      :     1.055198  p :     2.772654
      px      :     0.743990
      py      :     0.973465
      dz2     :     0.013857  d :     0.071906
      dxz     :     0.011649
      dyz     :     0.008194
      dx2y2   :     0.020854
      dxy     :     0.017352

  1 O s       :     3.740351  s :     3.740351
      pz      :     1.364661  p :     4.573598
      px      :     1.314320
      py      :     1.894617
      dz2     :     0.005118  d :     0.012704
      dxz     :     0.002166
      dyz     :     0.000801
      dx2y2   :     0.003002
      dxy     :     0.001616

  2 C s       :     2.980869  s :     2.980869
      pz      :     0.991591  p :     2.957518
      px      :     0.976131
      py      :     0.989796
      dz2     :     0.007370  d :     0.028009
      dxz     :     0.003150
      dyz     :     0.005923
      dx2y2   :     0.008551
      dxy     :     0.003015

  3 H s       :     0.776598  s :     0.776598
      pz      :     0.031490  p :     0.067040
      px      :     0.015987
      py      :     0.019563

  4 H s       :     0.981859  s :     0.981859
      pz      :     0.013671  p :     0.023687
      px      :     0.005622
      py      :     0.004394

  5 C s       :     2.984654  s :     2.984654
      pz      :     0.989659  p :     2.970647
      px      :     1.005417
      py      :     0.975572
      dz2     :     0.008904  d :     0.027365
      dxz     :     0.002913
      dyz     :     0.003828
      dx2y2   :     0.004765
      dxy     :     0.006956

  6 H s       :     0.968657  s :     0.968657
      pz      :     0.006471  p :     0.023606
      px      :     0.011637
      py      :     0.005499

  7 H s       :     0.985008  s :     0.985008
      pz      :     0.012737  p :     0.023340
      px      :     0.006041
      py      :     0.004562

  8 H s       :     0.981148  s :     0.981148
      pz      :     0.013323  p :     0.020132
      px      :     0.002652
      py      :     0.004157

  9 H s       :     0.961835  s :     0.961835
      pz      :     0.005128  p :     0.023171
      px      :     0.009449
      py      :     0.008594

 10 H s       :     0.972442  s :     0.972442
      pz      :     0.004879  p :     0.023455
      px      :     0.014058
      py      :     0.004519

 11 H s       :     0.961514  s :     0.961514
      pz      :     0.006642  p :     0.023056
      px      :     0.005474
      py      :     0.010941



                     *******************************
                     * LOEWDIN POPULATION ANALYSIS *
                     *******************************

----------------------
LOEWDIN ATOMIC CHARGES
----------------------
   0 C :    0.060307
   1 O :   -0.146662
   2 C :   -0.064658
   3 H :    0.071867
   4 H :    0.017314
   5 C :   -0.070721
   6 H :    0.026043
   7 H :    0.016129
   8 H :    0.018352
   9 H :    0.024892
  10 H :    0.021983
  11 H :    0.025153

-------------------------------
LOEWDIN REDUCED ORBITAL CHARGES
-------------------------------
  0 C s       :     2.844907  s :     2.844907
      pz      :     1.068244  p :     2.937946
      px      :     0.833978
      py      :     1.035723
      dz2     :     0.031292  d :     0.156840
      dxz     :     0.022924
      dyz     :     0.020127
      dx2y2   :     0.044960
      dxy     :     0.037538

  1 O s       :     3.456919  s :     3.456919
      pz      :     1.453639  p :     4.666021
      px      :     1.359999
      py      :     1.852383
      dz2     :     0.010666  d :     0.023722
      dxz     :     0.004193
      dyz     :     0.000489
      dx2y2   :     0.005700
      dxy     :     0.002674

  2 C s       :     2.849144  s :     2.849144
      pz      :     1.050385  p :     3.143343
      px      :     1.052872
      py      :     1.040086
      dz2     :     0.017950  d :     0.072171
      dxz     :     0.008258
      dyz     :     0.015430
      dx2y2   :     0.022259
      dxy     :     0.008274

  3 H s       :     0.752220  s :     0.752220
      pz      :     0.087858  p :     0.175913
      px      :     0.036656
      py      :     0.051400

  4 H s       :     0.917373  s :     0.917373
      pz      :     0.039129  p :     0.065313
      px      :     0.013568
      py      :     0.012615

  5 C s       :     2.849006  s :     2.849006
      pz      :     1.054755  p :     3.150927
      px      :     1.064954
      py      :     1.031219
      dz2     :     0.022571  d :     0.070788
      dxz     :     0.007519
      dyz     :     0.009624
      dx2y2   :     0.012260
      dxy     :     0.018815

  6 H s       :     0.908375  s :     0.908375
      pz      :     0.016671  p :     0.065582
      px      :     0.032816
      py      :     0.016095

  7 H s       :     0.919211  s :     0.919211
      pz      :     0.036175  p :     0.064660
      px      :     0.015539
      py      :     0.012946

  8 H s       :     0.918955  s :     0.918955
      pz      :     0.039676  p :     0.062693
      px      :     0.010265
      py      :     0.012752

  9 H s       :     0.909332  s :     0.909332
      pz      :     0.012883  p :     0.065776
      px      :     0.025902
      py      :     0.026991

 10 H s       :     0.912202  s :     0.912202
      pz      :     0.012539  p :     0.065814
      px      :     0.040258
      py      :     0.013018

 11 H s       :     0.910023  s :     0.910023
      pz      :     0.017900  p :     0.064823
      px      :     0.013811
      py      :     0.033113



                      *****************************
                      * MAYER POPULATION ANALYSIS *
                      *****************************

  NA   - Mulliken gross atomic population
  ZA   - Total nuclear charge
  QA   - Mulliken gross atomic charge
  VA   - Mayer's total valence
  BVA  - Mayer's bonded valence
  FA   - Mayer's free valence

  ATOM       NA         ZA         QA         VA         BVA        FA
  0 C      5.9077     6.0000     0.0923     4.2010     4.2010    -0.0000
  1 O      8.3267     8.0000    -0.3267     2.0615     2.0615     0.0000
  2 C      5.9664     6.0000     0.0336     3.9541     3.9541     0.0000
  3 H      0.8436     1.0000     0.1564     1.0211     1.0211    -0.0000
  4 H      1.0055     1.0000    -0.0055     0.9991     0.9991    -0.0000
  5 C      5.9827     6.0000     0.0173     3.9469     3.9469     0.0000
  6 H      0.9923     1.0000     0.0077     0.9886     0.9886    -0.0000
  7 H      1.0083     1.0000    -0.0083     1.0016     1.0016     0.0000
  8 H      1.0013     1.0000    -0.0013     0.9703     0.9703    -0.0000
  9 H      0.9850     1.0000     0.0150     1.0078     1.0078    -0.0000
 10 H      0.9959     1.0000     0.0041     0.9880     0.9880     0.0000
 11 H      0.9846     1.0000     0.0154     0.9938     0.9938     0.0000

  Mayer bond orders larger than 0.100000
B(  0-C ,  1-O ) :   1.0038 B(  0-C ,  2-C ) :   1.0814 B(  0-C ,  5-C ) :   1.0768 
B(  0-C ,  8-H ) :   0.9320 B(  1-O ,  3-H ) :   0.9819 B(  2-C ,  7-H ) :   0.9538 
B(  2-C , 10-H ) :   0.9578 B(  2-C , 11-H ) :   0.9634 B(  4-H ,  5-C ) :   0.9631 
B(  5-C ,  6-H ) :   0.9575 B(  5-C ,  9-H ) :   0.9625 

-------
TIMINGS
-------

Total SCF time: 0 days 0 hours 0 min 5 sec 

Total time                  ....       5.014 sec
Sum of individual times     ....       4.717 sec  ( 94.1%)

SCF preparation             ....       0.580 sec  ( 11.6%)
Fock matrix formation       ....       3.991 sec  ( 79.6%)
  Startup                   ....       0.010 sec  (  0.3% of F)
  Split-RI-J                ....       0.337 sec  (  8.4% of F)
  Chain of spheres X        ....       2.754 sec  ( 69.0% of F)
  XC integration            ....       1.007 sec  ( 25.2% of F)
    XC Preparation          ....       0.000 sec  (  0.0% of XC)
    Basis function eval.    ....       0.387 sec  ( 38.5% of XC)
    Density eval.           ....       0.179 sec  ( 17.8% of XC)
    XC-Functional eval.     ....       0.074 sec  (  7.4% of XC)
    XC-Potential eval.      ....       0.214 sec  ( 21.2% of XC)
Diagonalization             ....       0.000 sec  (  0.0%)
Density matrix formation    ....       0.032 sec  (  0.6%)
Total Energy calculation    ....       0.007 sec  (  0.1%)
Population analysis         ....       0.020 sec  (  0.4%)
Orbital Transformation      ....       0.015 sec  (  0.3%)
Orbital Orthonormalization  ....       0.000 sec  (  0.0%)
DIIS solution               ....       0.044 sec  (  0.9%)
SOSCF solution              ....       0.029 sec  (  0.6%)
Finished LeanSCF after   5.0 sec

Maximum memory used throughout the entire LEANSCF-calculation: 8.9 MB
[1770540416.765616] [node213:2934396:0]     ucp_context.c:1234 UCX  WARN  transport 'ib' is not available, please use one or more of: mm, posix, self, shm, sm, sysv, tcp
[1770540416.765895] [node213:2934397:0]     ucp_context.c:1234 UCX  WARN  transport 'ib' is not available, please use one or more of: mm, posix, self, shm, sm, sysv, tcp
[1770540416.773711] [node213:2934398:0]     ucp_context.c:1234 UCX  WARN  transport 'ib' is not available, please use one or more of: mm, posix, self, shm, sm, sysv, tcp
[1770540416.839312] [node213:2934399:0]     ucp_context.c:1234 UCX  WARN  transport 'ib' is not available, please use one or more of: mm, posix, self, shm, sm, sysv, tcp


           ************************************************************
           *        Program running with 4 parallel MPI-processes     *
           *              working on a common directory               *
           ************************************************************

------------------------------------------------------------------------------
                         ORCA PROPERTY INTEGRAL CALCULATIONS
------------------------------------------------------------------------------

GBWName                                   ... IPA_T.gbw
Number of atoms                           ...     12
Number of basis functions                 ...     96
Max core memory                           ...   1500 MB

Dipole integrals                          ... YES
Quadrupole integrals                      ...  NO
Linear momentum integrals                 ...  NO
Angular momentum integrals                ...  NO
Higher moments length integrals           ...  NO
Higher moments velocity integrals         ...  NO
Kinetic energy integrals                  ...  NO
GIAO right hand sides                     ...  NO
GIAO dipole derivative integrals          ...  NO
SOC integrals                             ...  NO
EPR diamagnetic integrals (GIAO)          ...  NO
EPR gauge integrals                       ...  NO
Field gradient integrals                  ...  NO (   0 nuclei)
Spin-dipole/Fermi contact integrals       ...  NO (   0 nuclei)
Contact density integrals                 ...  NO (   0 nuclei)
Nucleus-orbit integrals                   ...  NO (   0 nuclei)
Geometric perturbations                   ...  NO (  12 nuclei)

Choice of electric origin   ... Center of mass
Position of electric origin ... ( -4.6444, -1.6681,  1.7926) 
Choice of magnetic origin   ... GIAO
Position of magnetic origin ... (  0.0000,  0.0000,  0.0000) 

Calculating integrals                     ... Electric Dipole (Length)     done (  0.0 sec)

Property integrals calculated in   0.0 sec

Maximum memory used throughout the entire PROPINT-calculation: 7.4 MB

-------------------------   --------------------
FINAL SINGLE POINT ENERGY      -194.086133521191
-------------------------   --------------------

[1770540418.682919] [node213:2934416:0]     ucp_context.c:1234 UCX  WARN  transport 'ib' is not available, please use one or more of: mm, posix, self, shm, sm, sysv, tcp
[1770540418.683021] [node213:2934417:0]     ucp_context.c:1234 UCX  WARN  transport 'ib' is not available, please use one or more of: mm, posix, self, shm, sm, sysv, tcp
[1770540418.690141] [node213:2934418:0]     ucp_context.c:1234 UCX  WARN  transport 'ib' is not available, please use one or more of: mm, posix, self, shm, sm, sysv, tcp
[1770540418.754507] [node213:2934419:0]     ucp_context.c:1234 UCX  WARN  transport 'ib' is not available, please use one or more of: mm, posix, self, shm, sm, sysv, tcp


           ************************************************************
           *        Program running with 4 parallel MPI-processes     *
           *              working on a common directory               *
           ************************************************************
------------------------------------------------------------------------------
                         ORCA SCF GRADIENT CALCULATION
------------------------------------------------------------------------------

Nuc. rep. gradient        (SHARK) ... done (  0.0 sec)
HCore & Overlap gradient  (SHARK) ... done (  0.0 sec)
Split-RIJ-J gradient      (SHARK) ... done (  0.2 sec)
done (  2.3 sec)
XC gradient                       ... done (  0.6 sec)

------------------
CARTESIAN GRADIENT
------------------

   1   C   :   -0.011465692   -0.001320346    0.017006982
   2   O   :   -0.003983681    0.001292112   -0.002620616
   3   C   :   -0.000062831    0.003933906   -0.007404643
   4   H   :    0.003069455    0.001094998   -0.006041752
   5   H   :    0.000039964    0.000258254    0.004935528
   6   C   :    0.006651277   -0.001263719   -0.001035098
   7   H   :    0.003981719   -0.003431088    0.000677410
   8   H   :    0.000448349   -0.002612862    0.004185022
   9   H   :   -0.003388988    0.000798431   -0.004975040
  10   H   :   -0.001682455   -0.001695705   -0.004565353
  11   H   :    0.005640381    0.000975247    0.001467013
  12   H   :    0.000752502    0.001970773   -0.001629452

Difference to translation invariance:
           :    0.0000000001   -0.0000000000    0.0000000001

Difference to rotation invariance:
           :   -0.0000695875   -0.0002028148    0.0000422995

Norm of the Cartesian gradient     ...    0.0281724959
RMS gradient                       ...    0.0046954160
MAX gradient                       ...    0.0170069820

-------
TIMINGS
-------

Total SCF gradient time     ....        3.151 sec

Densities                   ....       0.001 sec  (  0.0%)
One electron gradient       ....       0.022 sec  (  0.7%)
RI-J Coulomb gradient       ....       0.218 sec  (  6.9%)
COSX gradient               ....       2.331 sec  ( 74.0%)
XC gradient                 ....       0.579 sec  ( 18.4%)

Maximum memory used throughout the entire SCFGRAD-calculation: 11.5 MB
------------------------------------------------------------------------------
                         ORCA GEOMETRY RELAXATION STEP
------------------------------------------------------------------------------

Reading the OPT-File                    .... done
Getting information on internals        .... done
Copying old internal coords+grads       .... done
Making the new internal coordinates     .... (2022 redundants) done
Validating the new internal coordinates .... (2022 redundants) done
Calculating the B-matrix                .... done
Calculating the G,G- and P matrices     .... done
Transforming gradient to internals      .... done
Projecting the internal gradient        .... done
Number of atoms                         ....  12
Number of internal coordinates          ....  45
Current Energy                          ....  -194.086133521 Eh
Current gradient norm                   ....     0.028172496 Eh/bohr
Maximum allowed component of the step   ....  0.300
Current trust radius                    ....  0.300
Evaluating the initial hessian          ....  (Almloef) done
Projecting the Hessian                  .... done
Forming the augmented Hessian           .... done
Diagonalizing the augmented Hessian     .... done
Last element of RFO vector              ....  0.955548367
Lowest eigenvalues of augmented Hessian:
 -0.003532855  0.011577270  0.012596313  0.019062031  0.101926859
Length of the computed step             ....  0.308549938
Warning: the length of the step is outside the trust region - taking restricted step instead
The input lambda is                     ....     0.010414
   iter:   5  x=    0.004208  g=  289.862138 f(x)=     0.649366
   iter:  10  x=   -0.004031  g=    9.998983 f(x)=     0.000291
The output lambda is                    ....    -0.004031 (13 iterations)
The final length of the internal step   ....  0.300000000
Converting the step to Cartesian space:
 Initial RMS(Int)=    0.0447213595
Transforming coordinates:
 Iter   0:  RMS(Cart)=    0.0677850378 RMS(Int)=    0.9294507766
 Iter   5:  RMS(Cart)=    0.0000002600 RMS(Int)=    0.0000002042
done
Storing new coordinates                 .... done

                                .--------------------.
          ----------------------|Geometry convergence|-------------------------
          Item                value                   Tolerance       Converged
          ---------------------------------------------------------------------
          RMS gradient        0.0034161917            0.0001000000      NO
          MAX gradient        0.0078465124            0.0003000000      NO
          RMS step            0.0447213595            0.0020000000      NO
          MAX step            0.1395070542            0.0040000000      NO
          -------------------------------------------------------------------------
          ........................................................
          Max(Bonds)      0.0109      Max(Angles)    2.02
          Max(Dihed)        7.99      Max(Improp)    0.00
          ---------------------------------------------------------------------

The optimization has not yet converged - more geometry cycles are needed


    ---------------------------------------------------------------------------
                         Redundant Internal Coordinates
                            (Angstroem and degrees)

        Definition                    Value    dE/dq     Step     New-Value
    ----------------------------------------------------------------------------
     1. B(O   1,C   0)                1.4256 -0.001012  0.0011    1.4266   
     2. B(C   2,C   0)                1.5243 -0.004321  0.0059    1.5303   
     3. B(H   3,O   1)                0.9737  0.006774 -0.0072    0.9665   
     4. B(C   5,H   4)                1.0968 -0.004894  0.0073    1.1041   
     5. B(C   5,C   0)                1.5265 -0.007847  0.0109    1.5374   
     6. B(H   6,C   5)                1.0964 -0.004230  0.0063    1.1027   
     7. B(H   7,C   2)                1.0984 -0.003575  0.0054    1.1038   
     8. B(H   8,C   0)                1.0965 -0.003798  0.0057    1.1021   
     9. B(H   9,C   5)                1.0959 -0.002974  0.0044    1.1003   
    10. B(H  10,C   2)                1.0942 -0.005644  0.0083    1.1025   
    11. B(H  11,C   2)                1.0984 -0.002228  0.0033    1.1017   
    12. A(O   1,C   0,C   2)          109.05 -0.002798    1.28    110.34   
    13. A(O   1,C   0,H   8)          107.14  0.005277   -2.02    105.12   
    14. A(O   1,C   0,C   5)          109.68 -0.004957    1.82    111.50   
    15. A(C   5,C   0,H   8)          109.28  0.000208   -0.64    108.64   
    16. A(C   2,C   0,C   5)          111.90  0.001221    0.53    112.43   
    17. A(C   2,C   0,H   8)          109.68  0.001223   -1.09    108.59   
    18. A(C   0,O   1,H   3)          107.71  0.001870   -0.30    107.41   
    19. A(C   0,C   2,H  10)          111.58 -0.002080    0.29    111.87   
    20. A(H  10,C   2,H  11)          108.89  0.001518   -0.12    108.77   
    21. A(H   7,C   2,H  11)          106.46 -0.001964    0.56    107.02   
    22. A(C   0,C   2,H  11)          110.06 -0.000784    0.30    110.36   
    23. A(H   7,C   2,H  10)          108.98  0.001191   -0.56    108.42   
    24. A(C   0,C   2,H   7)          110.72  0.002148   -0.46    110.26   
    25. A(H   6,C   5,H   9)          108.77  0.004106   -0.91    107.86   
    26. A(H   4,C   5,H   6)          107.50  0.001764   -0.11    107.39   
    27. A(H   4,C   5,H   9)          107.40 -0.004794    0.83    108.23   
    28. A(C   0,C   5,H   9)          111.32  0.003970   -0.80    110.52   
    29. A(C   0,C   5,H   6)          110.40 -0.003286    0.63    111.03   
    30. A(C   0,C   5,H   4)          111.31 -0.001716    0.36    111.67   
    31. D(H   3,O   1,C   0,C   5)    -57.13  0.001694   -2.04    -59.18   
    32. D(H   3,O   1,C   0,H   8)   -175.64  0.001117   -1.11   -176.75   
    33. D(H   3,O   1,C   0,C   2)     65.73 -0.001790    0.62     66.35   
    34. D(H   7,C   2,C   0,H   8)   -173.19  0.000061   -1.67   -174.86   
    35. D(H   7,C   2,C   0,C   5)     65.36 -0.001858   -0.47     64.90   
    36. D(H  10,C   2,C   0,C   5)    -56.21 -0.003445    0.37    -55.83   
    37. D(H   7,C   2,C   0,O   1)    -56.16  0.005503   -3.98    -60.14   
    38. D(H  10,C   2,C   0,H   8)     65.24 -0.001526   -0.83     64.41   
    39. D(H  10,C   2,C   0,O   1)   -177.73  0.003915   -3.14   -180.87   
    40. D(H   6,C   5,C   0,C   2)     88.73  0.004014   -7.49     81.23   
    41. D(H   6,C   5,C   0,O   1)   -150.12 -0.002118   -4.27   -154.39   
    42. D(H   4,C   5,C   0,H   8)   -152.25  0.002575   -6.53   -158.78   
    43. D(H   4,C   5,C   0,C   2)    -30.58  0.005068   -7.99    -38.57   
    44. D(H   6,C   5,C   0,H   8)    -32.95  0.001521   -6.03    -38.98   
    45. D(H   4,C   5,C   0,O   1)     90.58 -0.001064   -4.77     85.81   
    ----------------------------------------------------------------------------

Geometry step timings:
Preparation and reading OPT file:      0.000 s ( 0.688 %)
Internal coordinates            :      0.001 s (12.629 %)
B/P matrices and projection     :      0.001 s (10.799 %)
Hessian update/contruction      :      0.001 s ( 7.071 %)
Making the step                 :      0.003 s (39.799 %)
Converting the step to Cartesian:      0.001 s ( 9.080 %)
Storing new data                :      0.000 s ( 0.880 %)
Checking convergence            :      0.000 s ( 1.967 %)
Final printing                  :      0.001 s (13.221 %)
Total time                      :      0.007 s
[1770540423.791500] [node213:2934436:0]     ucp_context.c:1234 UCX  WARN  transport 'ib' is not available, please use one or more of: mm, posix, self, shm, sm, sysv, tcp
[1770540423.791767] [node213:2934437:0]     ucp_context.c:1234 UCX  WARN  transport 'ib' is not available, please use one or more of: mm, posix, self, shm, sm, sysv, tcp
[1770540423.800306] [node213:2934438:0]     ucp_context.c:1234 UCX  WARN  transport 'ib' is not available, please use one or more of: mm, posix, self, shm, sm, sysv, tcp
[1770540423.864792] [node213:2934439:0]     ucp_context.c:1234 UCX  WARN  transport 'ib' is not available, please use one or more of: mm, posix, self, shm, sm, sysv, tcp

Time for energy+gradient        :     18.469 s
Time for complete geometry iter :     20.388 s

         *************************************************************
         *                GEOMETRY OPTIMIZATION CYCLE   2            *
         *************************************************************
---------------------------------
CARTESIAN COORDINATES (ANGSTROEM)
---------------------------------
  C     -2.570116   -0.885947    1.284413
  O     -1.147981   -0.998857    1.294104
  C     -3.193633   -2.093592    0.581167
  H     -0.846422   -0.933410    0.378187
  H     -3.101700    0.385481   -0.429354
  C     -3.024392    0.448233    0.670244
  H     -4.015208    0.743367    1.053828
  H     -2.839243   -2.153104   -0.462481
  H     -2.867523   -0.905022    2.345464
  H     -2.313326    1.249874    0.920222
  H     -4.294841   -2.040411    0.572599
  H     -2.887606   -3.027333    1.079414

----------------------------
CARTESIAN COORDINATES (A.U.)
----------------------------
  NO LB      ZA    FRAG     MASS         X           Y           Z
   0 C     6.0000    0    12.011   -4.856816   -1.674197    2.427188
   1 O     8.0000    0    15.999   -2.169370   -1.887566    2.445503
   2 C     6.0000    0    12.011   -6.035092   -3.956316    1.098247
   3 H     1.0000    0     1.008   -1.599506   -1.763890    0.714670
   4 H     1.0000    0     1.008   -5.861364    0.728454   -0.811361
   5 C     6.0000    0    12.011   -5.715273    0.847037    1.266577
   6 H     1.0000    0     1.008   -7.587644    1.404759    1.991446
   7 H     1.0000    0     1.008   -5.365391   -4.068777   -0.873962
   8 H     1.0000    0     1.008   -5.418833   -1.710243    4.432284
   9 H     1.0000    0     1.008   -4.371552    2.361920    1.738967
  10 H     1.0000    0     1.008   -8.116073   -3.855818    1.082054
  11 H     1.0000    0     1.008   -5.456784   -5.720830    2.039797

--------------------------------
INTERNAL COORDINATES (ANGSTROEM)
--------------------------------
 C      0   0   0     0.000000000000     0.00000000     0.00000000
 O      1   0   0     1.426643286475     0.00000000     0.00000000
 C      1   2   0     1.530272809614   110.29360716     0.00000000
 H      2   1   3     0.966501966346   107.41121539    66.37049759
 H      1   2   3     2.199114989053   106.97858198   263.54053942
 C      5   1   2     1.104096702423    40.51915151   256.03858428
 H      6   5   1     1.102704204235   107.38177871   238.06714094
 H      3   1   2     1.103782364501   110.25793716   299.85216275
 H      1   2   3     1.102108799081   105.13473924   116.88197040
 H      6   5   1     1.100333204450   108.23489322   121.87197035
 H      3   1   2     1.102524678102   111.86824849   179.12092053
 H      3   1   2     1.101714446661   110.35499500    57.86957849

---------------------------
INTERNAL COORDINATES (A.U.)
---------------------------
 C      0   0   0     0.000000000000     0.00000000     0.00000000
 O      1   0   0     2.695965102235     0.00000000     0.00000000
 C      1   2   0     2.891796520357   110.29360716     0.00000000
 H      2   1   3     1.826424024290   107.41121539    66.37049759
 H      1   2   3     4.155725066311   106.97858198   263.54053942
 C      5   1   2     2.086440392945    40.51915151   256.03858428
 H      6   5   1     2.083808952727   107.38177871   238.06714094
 H      3   1   2     2.085846380359   110.25793716   299.85216275
 H      1   2   3     2.082683800048   105.13473924   116.88197040
 H      6   5   1     2.079328412470   108.23489322   121.87197035
 H      3   1   2     2.083469697502   111.86824849   179.12092053
 H      3   1   2     2.081938581973   110.35499500    57.86957849

[1770540425.301102] [node213:2934456:0]     ucp_context.c:1234 UCX  WARN  transport 'ib' is not available, please use one or more of: mm, posix, self, shm, sm, sysv, tcp
[1770540425.362376] [node213:2934457:0]     ucp_context.c:1234 UCX  WARN  transport 'ib' is not available, please use one or more of: mm, posix, self, shm, sm, sysv, tcp
[1770540425.431691] [node213:2934460:0]     ucp_context.c:1234 UCX  WARN  transport 'ib' is not available, please use one or more of: mm, posix, self, shm, sm, sysv, tcp
[1770540425.500196] [node213:2934463:0]     ucp_context.c:1234 UCX  WARN  transport 'ib' is not available, please use one or more of: mm, posix, self, shm, sm, sysv, tcp


           ************************************************************
           *        Program running with 4 parallel MPI-processes     *
           *              working on a common directory               *
           ************************************************************
------------------------------------------------------------------------------
                   ___                                                        
                  /   \      - P O W E R E D   B Y -                         
                 /     \                                                     
                 |  |  |   _    _      __       _____    __    __             
                 |  |  |  | |  | |    /  \     |  _  \  |  |  /  |          
                  \  \/   | |  | |   /    \    | | | |  |  | /  /          
                 / \  \   | |__| |  /  /\  \   | |_| |  |  |/  /          
                |  |  |   |  __  | /  /__\  \  |    /   |      \           
                |  |  |   | |  | | |   __   |  |    \   |  |\   \          
                \     /   | |  | | |  |  |  |  | |\  \  |  | \   \       
                 \___/    |_|  |_| |__|  |__|  |_| \__\ |__|  \__/        
                                                                              
                      - O R C A' S   B I G   F R I E N D -                    
                                      &                                       
                       - I N T E G R A L  F E E D E R -                       
                                                                              
 v1 FN, 2020, v2 2021, v3 2022-2024                                           
------------------------------------------------------------------------------


----------------------
SHARK INTEGRAL PACKAGE
----------------------

Number of atoms                             ...     12
Number of basis functions                   ...     96
Number of shells                            ...     48
Maximum angular momentum                    ...      2
Integral batch strategy                     ... SHARK/LIBINT Hybrid
RI-J (if used) integral strategy            ... SPLIT-RIJ (Revised 2003 algorithm where possible)
Printlevel                                  ...      1
Contraction scheme used                     ... SEGMENTED contraction
Prescreening option                         ... SCHWARTZ
   Thresh                                   ... 2.500e-11
   Tcut                                     ... 2.500e-12
   Tpresel                                  ... 2.500e-12 
Coulomb Range Separation                    ... NOT USED
Exchange Range Separation                   ... NOT USED
Multipole approximations                    ... NOT USED
Finite Nucleus Model                        ... NOT USED
CABS basis                                  ... NOT available
Auxiliary Coulomb fitting basis             ... AVAILABLE
   # of basis functions in Aux-J            ...    284
   # of shells in Aux-J                     ...    100
   Maximum angular momentum in Aux-J        ...      4
Auxiliary J/K fitting basis                 ... NOT available
Auxiliary Correlation fitting basis         ... NOT available
Auxiliary 'external' fitting basis          ... NOT available

Checking pre-screening integrals            ... done (  0.0 sec) Dimension = 48
   => SHARK Basis and OBASIS are compatible. Storing Pre-screening
Shell pair information
Shell pair cut-off parameter TPreSel        ...   2.5e-12
Total number of shell pairs                 ...      1176
Shell pairs after pre-screening             ...      1169
Total number of primitive shell pairs       ...      3992
Primitive shell pairs kept                  ...      3299
          la=0 lb=0:    403 shell pairs
          la=1 lb=0:    444 shell pairs
          la=1 lb=1:    136 shell pairs
[...]
     21      -0.027659   0.456401   0.361151  -0.177758  -0.109492   0.111455
     22      -0.344585  -0.147587   0.030216   0.391772   0.007124  -0.009836
     23       0.025924   0.088748   0.060095  -0.062379   0.511951  -0.527518
     24       0.007962  -0.010024   0.205352  -0.108229  -0.000497  -0.031287
     25       0.089817  -0.133873  -0.016511   0.009692  -0.003146  -0.000190
     26       0.001945  -0.002257  -0.007899  -0.050450   0.001074   0.149727
     27      -0.370902   0.045850  -0.267816  -0.260040   0.146816   0.139148
     28       0.043401  -0.144717   0.165294  -0.058843   0.228406   0.220703
     29       0.320839   0.233297  -0.048659   0.402906   0.143891   0.136057
     30      -0.026866   0.020405   0.039689  -0.000353   0.351618  -0.333921
     31       0.304613  -0.002927  -0.210685  -0.252511  -0.015249   0.014226
     32      -0.195716   0.416947   0.420617  -0.057357  -0.044556   0.042615
     33       0.375680  -0.066987  -0.290581  -0.246035  -0.105601   0.102157
     34      -0.006570  -0.127185  -0.116769   0.084338   0.251264  -0.248920
     35      -0.322960  -0.241246  -0.053346   0.401150  -0.133067   0.129099
                 30         31         32         33         34         35    
      0       0.016862  -0.000053   0.005315  -0.000148  -0.001293   0.000447
      1       0.000071  -0.000815  -0.000034  -0.001156   0.000211  -0.000099
      2      -0.078914  -0.000050  -0.021930  -0.000082  -0.003765   0.003186
      3       0.001211   0.000002  -0.000248   0.000061   0.000768  -0.019141
      4      -0.000131   0.000060   0.000005   0.000426  -0.000078   0.000399
      5       0.001640   0.000005   0.000897   0.000005   0.000015   0.059169
      6      -0.009693   0.041578   0.038148   0.042692  -0.047601   0.000282
      7      -0.008573   0.013593   0.014905  -0.040775   0.042737  -0.000099
      8       0.008018  -0.047997  -0.046908   0.024477  -0.023408  -0.000490
      9      -0.001240  -0.000256  -0.005815  -0.000165  -0.001199   0.290673
     10       0.000431  -0.003214   0.000570  -0.001724   0.000119  -0.004944
     11      -0.016803  -0.000087  -0.004856   0.000016   0.001089  -0.954638
     12       0.004609   0.087995  -0.086985  -0.028798  -0.024090  -0.001388
     13      -0.000438   0.012343  -0.016046  -0.007241  -0.007459   0.001782
     14      -0.023624  -0.439289   0.434474   0.092792   0.071448   0.001984
     15      -0.008133  -0.038476   0.035079  -0.052408  -0.050852   0.000297
     16       0.009776   0.018530  -0.019533  -0.034200  -0.031197   0.000071
     17       0.008363   0.048508  -0.047969  -0.026994  -0.022856  -0.000492
     18       0.154600   0.485607  -0.455947   0.366902   0.371727   0.002266
     19      -0.013593  -0.057477   0.055164  -0.049927  -0.051171  -0.001415
     20      -0.016778  -0.047422   0.043733  -0.046907  -0.047007   0.000257
     21       0.004785  -0.087059  -0.084541   0.026658  -0.024986  -0.001653
     22       0.000573   0.010004   0.013546  -0.007884   0.009177  -0.001593
     23      -0.023988   0.442362   0.433292  -0.091249   0.079686   0.001880
     24      -0.208622   0.000115  -0.051207   0.000017  -0.005545  -0.000072
     25      -0.000094   0.002372  -0.000147   0.000865  -0.000262   0.000288
     26       0.929460   0.000372   0.234587   0.000610   0.037298  -0.015474
     27      -0.067203  -0.116859   0.123077   0.288686   0.262980  -0.000321
     28      -0.099167  -0.170648   0.185157   0.468445   0.426932   0.000434
     29      -0.058426  -0.092565   0.101857   0.275234   0.250958   0.000152
     30       0.154983  -0.491962  -0.459099  -0.341344   0.395189   0.002467
     31      -0.011221   0.020939   0.018377   0.008213  -0.008923   0.001016
     32      -0.016571   0.046533   0.042602   0.042290  -0.048323   0.000304
     33      -0.049635   0.086051   0.088560  -0.195397   0.202272  -0.000390
     34       0.110403  -0.188321  -0.201146   0.489652  -0.507199  -0.000382
     35      -0.054184   0.084521   0.091914  -0.241907   0.250729   0.000141


-----------
IR SPECTRUM
-----------

 Mode   freq       eps      Int      T**2         TX        TY        TZ
       cm**-1   L/(mol*cm) km/mol    a.u.
----------------------------------------------------------------------------
  6:    238.81   0.000244    1.23  0.000319  (-0.001450 -0.017802 -0.000359)
  7:    275.08   0.000066    0.33  0.000075  ( 0.007380 -0.000398 -0.004465)
  8:    303.29   0.019324   97.66  0.019883  (-0.011516 -0.140512 -0.002711)
  9:    360.48   0.000037    0.19  0.000032  (-0.002082  0.000301 -0.005235)
 10:    434.58   0.006769   34.21  0.004861  (-0.005779 -0.069465 -0.001324)
 11:    476.45   0.000757    3.82  0.000496  ( 0.019469 -0.001437 -0.010695)
 12:    822.74   0.000962    4.86  0.000365  (-0.018839  0.001594 -0.002761)
 13:    918.03   0.000064    0.32  0.000022  (-0.000411 -0.004629 -0.000091)
 14:    931.86   0.000089    0.45  0.000030  (-0.000467 -0.005449 -0.000074)
 15:    976.21   0.002471   12.49  0.000790  (-0.027711  0.002345 -0.004077)
 16:   1088.30   0.017404   87.95  0.004991  (-0.070238  0.005618  0.005067)
 17:   1144.18   0.003362   16.99  0.000917  ( 0.002224  0.030192  0.000567)
 18:   1186.33   0.008912   45.04  0.002344  (-0.047913  0.003972 -0.005743)
 19:   1303.77   0.001227    6.20  0.000294  ( 0.016708 -0.001464  0.003528)
 20:   1348.65   0.001221    6.17  0.000282  (-0.001387 -0.016745 -0.000306)
 21:   1387.14   0.003974   20.08  0.000894  ( 0.002403  0.029797  0.000594)
 22:   1393.54   0.000356    1.80  0.000080  (-0.004774  0.000216  0.007541)
 23:   1411.78   0.010304   52.07  0.002278  (-0.045630  0.003972 -0.013406)
 24:   1454.33   0.000049    0.25  0.000010  ( 0.000283  0.003214  0.000022)
 25:   1457.37   0.000011    0.06  0.000002  (-0.000147 -0.001541 -0.000039)
 26:   1469.59   0.002565   12.96  0.000545  (-0.017776  0.001177  0.015075)
 27:   1478.40   0.001129    5.71  0.000238  (-0.009522  0.000550  0.012142)
 28:   3011.50   0.002814   14.22  0.000292  (-0.001398 -0.017017 -0.000200)
 29:   3015.86   0.002914   14.72  0.000301  ( 0.006188 -0.000678  0.016209)
 30:   3039.08   0.004299   21.72  0.000441  ( 0.001152  0.000283 -0.020976)
 31:   3089.00   0.000719    3.63  0.000073  ( 0.000820  0.008480  0.000095)
 32:   3097.95   0.012685   64.11  0.001278  ( 0.020906 -0.001264 -0.028968)
 33:   3119.64   0.002733   13.81  0.000273  (-0.002061 -0.016396 -0.000523)
 34:   3121.32   0.005179   26.17  0.000518  (-0.020150  0.002424 -0.010287)
 35:   3786.53   0.002857   14.44  0.000235  ( 0.009385 -0.000515 -0.012128)

* The epsilon (eps) is given for a Dirac delta lineshape.
** The dipole moment derivative (T) already includes vibrational overlap.

The first frequency considered to be a vibration is 6
The total number of vibrations considered is 30


--------------------------
THERMOCHEMISTRY AT 298.15K
--------------------------

Temperature         ...   298.15 K
Pressure            ...     1.00 atm
Total Mass          ...    60.10 AMU
Quasi RRHO          ...     True
Cut-Off Frequency   ...     1.00 cm^-1

Throughout the following assumptions are being made:
  (1) The electronic state is orbitally nondegenerate
  (2) There are no thermally accessible electronically excited states
  (3) Hindered rotations indicated by low frequency modes are not
      treated as such but are treated as vibrations and this may
      cause some error
  (4) All equations used are the standard statistical mechanics
      equations for an ideal gas
  (5) All vibrations are strictly harmonic

freq.     238.81  E(vib)   ...       0.32 
freq.     275.08  E(vib)   ...       0.28 
freq.     303.29  E(vib)   ...       0.26 
freq.     360.48  E(vib)   ...       0.22 
freq.     434.58  E(vib)   ...       0.17 
freq.     476.45  E(vib)   ...       0.15 
freq.     822.74  E(vib)   ...       0.05 
freq.     918.03  E(vib)   ...       0.03 
freq.     931.86  E(vib)   ...       0.03 
freq.     976.21  E(vib)   ...       0.03 
freq.    1088.30  E(vib)   ...       0.02 
freq.    1144.18  E(vib)   ...       0.01 
freq.    1186.33  E(vib)   ...       0.01 
freq.    1303.77  E(vib)   ...       0.01 
freq.    1348.65  E(vib)   ...       0.01 
freq.    1387.14  E(vib)   ...       0.00 
freq.    1393.54  E(vib)   ...       0.00 
freq.    1411.78  E(vib)   ...       0.00 
freq.    1454.33  E(vib)   ...       0.00 
freq.    1457.37  E(vib)   ...       0.00 
freq.    1469.59  E(vib)   ...       0.00 
freq.    1478.40  E(vib)   ...       0.00 
freq.    3011.50  E(vib)   ...       0.00 
freq.    3015.86  E(vib)   ...       0.00 
freq.    3039.08  E(vib)   ...       0.00 
freq.    3089.00  E(vib)   ...       0.00 
freq.    3097.95  E(vib)   ...       0.00 
freq.    3119.64  E(vib)   ...       0.00 
freq.    3121.32  E(vib)   ...       0.00 
freq.    3786.53  E(vib)   ...       0.00 

------------
INNER ENERGY
------------

The inner energy is: U= E(el) + E(ZPE) + E(vib) + E(rot) + E(trans)
    E(el)   - is the total energy from the electronic structure calculation
              = E(kin-el) + E(nuc-el) + E(el-el) + E(nuc-nuc)
    E(ZPE)  - the the zero temperature vibrational energy from the frequency calculation
    E(vib)  - the the finite temperature correction to E(ZPE) due to population
              of excited vibrational states
    E(rot)  - is the rotational thermal energy
    E(trans)- is the translational thermal energy

Summary of contributions to the inner energy U:
Electronic energy                ...   -194.09025686 Eh
Zero point energy                ...      0.10739690 Eh      67.39 kcal/mol
Thermal vibrational correction   ...      0.00258107 Eh       1.62 kcal/mol
Thermal rotational correction    ...      0.00141627 Eh       0.89 kcal/mol
Thermal translational correction ...      0.00141627 Eh       0.89 kcal/mol
-----------------------------------------------------------------------
Total thermal energy                   -193.97744635 Eh


Summary of corrections to the electronic energy:
(perhaps to be used in another calculation)
Total thermal correction                  0.00541361 Eh       3.40 kcal/mol
Non-thermal (ZPE) correction              0.10739690 Eh      67.39 kcal/mol
-----------------------------------------------------------------------
Total correction                          0.11281052 Eh      70.79 kcal/mol


--------
ENTHALPY
--------

The enthalpy is H = U + kB*T
                kB is Boltzmann's constant
Total thermal energy              ...   -193.97744635 Eh 
Thermal Enthalpy correction       ...      0.00094421 Eh       0.59 kcal/mol
-----------------------------------------------------------------------
Total Enthalpy                    ...   -193.97650214 Eh


Note: Only C1 symmetry has been detected, increase convergence thresholds 
      if your molecule has a higher symmetry. Symmetry factor of 1.0 is   
      used for the rotational entropy correction. 
 

Note: Rotational entropy computed according to Herzberg 
Infrared and Raman Spectra, Chapter V,1, Van Nostrand Reinhold, 1945 
Point Group:  C1, Symmetry Number:   1  
Rotational constants in cm-1:     0.283623     0.265071     0.158105 

Vibrational entropy computed according to the QRRHO of S. Grimme
Chem.Eur.J. 2012 18 9955 using a reference frequency of 100.0 cm-1


-------
ENTROPY
-------

The entropy contributions are T*S = T*(S(el)+S(vib)+S(rot)+S(trans))
     S(el)   - electronic entropy
     S(vib)  - vibrational entropy
     S(rot)  - rotational entropy
     S(trans)- translational entropy
The entropies will be listed as multiplied by the temperature to get
units of energy

Electronic entropy                ...      0.00000000 Eh      0.00 kcal/mol
Vibrational entropy               ...      0.00396428 Eh      2.49 kcal/mol
Rotational entropy                ...      0.01160328 Eh      7.28 kcal/mol
Translational entropy             ...      0.01815004 Eh     11.39 kcal/mol
-----------------------------------------------------------------------
Final entropy term                ...      0.03371761 Eh     21.16 kcal/mol

In case the symmetry of your molecule has not been determined correctly
or in case you have a reason to use a different symmetry number we print 
out the resulting rotational entropy values for sn=1,12:

 non-linear molecules -----------------------------------
|  sn= 1 | S(rot)=       0.01160328 Eh      7.28 kcal/mol|
|  sn= 2 | S(rot)=       0.01094883 Eh      6.87 kcal/mol|
|  sn= 3 | S(rot)=       0.01056600 Eh      6.63 kcal/mol|
|  sn= 4 | S(rot)=       0.01029437 Eh      6.46 kcal/mol|
|  sn= 5 | S(rot)=       0.01008368 Eh      6.33 kcal/mol|
|  sn= 6 | S(rot)=       0.00991154 Eh      6.22 kcal/mol|
|  sn= 7 | S(rot)=       0.00976599 Eh      6.13 kcal/mol|
|  sn= 8 | S(rot)=       0.00963992 Eh      6.05 kcal/mol|
|  sn= 9 | S(rot)=       0.00952871 Eh      5.98 kcal/mol|
|  sn=10 | S(rot)=       0.00942923 Eh      5.92 kcal/mol|
|  sn=11 | S(rot)=       0.00933924 Eh      5.86 kcal/mol|
|  sn=12 | S(rot)=       0.00925708 Eh      5.81 kcal/mol|
 linear molecules ---------------------------------------
|  Dinfh | S(rot)=       0.00706734 Eh      4.43 kcal/mol|
|  Cinfv | S(rot)=       0.00772180 Eh      4.85 kcal/mol|
 --------------------------------------------------------


-------------------
GIBBS FREE ENERGY
-------------------

The Gibbs free energy is G = H - T*S

Total enthalpy                    ...   -193.97650214 Eh 
Total entropy correction          ...     -0.03371761 Eh    -21.16 kcal/mol
-----------------------------------------------------------------------
Final Gibbs free energy         ...   -194.01021974 Eh

For completeness - the Gibbs free energy minus the electronic energy
G-E(el)                           ...      0.08003712 Eh     50.22 kcal/mol


Maximum memory used throughout the entire PROP-calculation: 24.6 MB
[1770540580.486541] [node213:2936123:0]     ucp_context.c:1234 UCX  WARN  transport 'ib' is not available, please use one or more of: mm, posix, self, shm, sm, sysv, tcp
[1770540580.546565] [node213:2936124:0]     ucp_context.c:1234 UCX  WARN  transport 'ib' is not available, please use one or more of: mm, posix, self, shm, sm, sysv, tcp
[1770540580.615124] [node213:2936127:0]     ucp_context.c:1234 UCX  WARN  transport 'ib' is not available, please use one or more of: mm, posix, self, shm, sm, sysv, tcp
[1770540580.683370] [node213:2936130:0]     ucp_context.c:1234 UCX  WARN  transport 'ib' is not available, please use one or more of: mm, posix, self, shm, sm, sysv, tcp

--------------------------------
SUGGESTED CITATIONS FOR THIS RUN
--------------------------------

Below you find a list of papers that are relevant to this ORCA run
We neither can nor want to force you to cite these papers, but we appreciate if you do
You receive ORCA, which is the product of decades of hard work by many enthusiastic individuals, for free
The only thing we kindly ask in return is that you cite our papers,
We deeply appreciate it, if you show your appreciation for ORCA by not just citing the generic ORCA reference.

Please note that relegating all ORCA citations to the supporting information does *not* help us.
SI sections are not indexed - citations you put there will not count into any citation statistics
But we need these citations in order to attract the funding resources that allow us to do what we are doing

Therefore, if you are a happy ORCA user, please consider citing a few of the papers listed below in the main body of your paper

In addition to the list printed below, the program has created the file IPA_T.bibtex that contains the list in bibtex format
You can import this file easily into all common literature databanks and citation aid programs


List of essential papers. We consider these as the minimum necessary citations

  1. Neese, F.
     Software update: the ORCA program system, version 6.0
     WIRES Comput. Molec. Sci. 2025 15(1), e70019
     doi.org/10.1002/wcms.7019

List of papers to cite with high priority. The work reported in these papers was absolutely
necessary for this run to complete.
Our perspective: the developers of density functionals and basis sets usually get cited in chemistry papers
Good! But without the algorithms to do something with them, the functionals or basis sets would not do anything.
Hence, in our opinion, the algorithm design and method developments papers are equally worthy of getting cited

  1. Neese, F.
     An improvement of the resolution of the identity approximation for the formation of the Coulomb matrix
     J. Comp. Chem. 2003 24(14), 1740-1747
     doi.org/10.1002/jcc.10318
  2. Neese, F.; Wennmohs, F.; Hansen, A.; Becker, U.
     Efficient, approximate and parallel Hartree-Fock and hybrid DFT calculations. A 'chain-of-spheres' algorithm for the Hartree-Fock exchange
     Chem. Phys. 2009 356(1-3), 98-109
     doi.org/10.1016/j.chemphys.2008.10.036
  3. Bykov, D.; Petrenko, T.; Izsak, R.; Kossmann, S.; Becker, U.; Valeev, E.; Neese, F.
     Efficient implementation of the analytic second derivatives of Hartree-Fock and hybrid DFT energies: a detailed analysis of different approximations
     Molec. Phys. 2015 113 , 1961-1977
     doi.org/10.1080/00268976.2015.1025114
  4. Helmich-Paris, B.; de Souza, B.; Neese, F.; Izsák, R.
     An improved chain of spheres for exchange algorithm
     J. Chem. Phys. 2021 155(10), 104109
     doi.org/10.1063/5.0058766
  5. Neese, F.
     The SHARK Integral Generation and Digestion System
     J. Comp. Chem. 2022 44(3), 381
     doi.org/10.1002/jcc.26942

List of suggested additional citations. These are papers that are important in the 'surrounding' of 
of this run, or papers that preceded the highly important papers. If you like your results we are grateful for a citation.

  1. Izsak, R.; Neese, F.
     An overlap fitted chain of spheres exchange method
     J. Chem. Phys. 2011 135 , 144105
     doi.org/10.1063/1.3646921
  2. Izsak, R.; Hansen, A.; Neese, F.
     The resolution of identity and chain of spheres approximations for the LPNO-CCSD singles Fock term
     Molec. Phys. 2012 110 , 2413-2417
     doi.org/10.1080/00268976.2012.687466
  3. Neese, F.
     The ORCA program system
     WIRES Comput. Molec. Sci. 2012 2(1), 73-78
     doi.org/10.1002/wcms.81
  4. Izsak, R.; Neese, F.; Klopper, W.
     Robust fitting techniques in the chain of spheres approximation to the Fock exchange: The role of the complementary space
     J. Chem. Phys. 2013 139 , 
     doi.org/10.1063/1.4819264
  5. Neese, F.
     Software update: the ORCA program system, version 4.0
     WIRES Comput. Molec. Sci. 2018 8(1), 1-6
     doi.org/10.1002/wcms.1327
  6. Neese, F.; Wennmohs, F.; Becker, U.; Riplinger, C.
     The ORCA quantum chemistry program package
     J. Chem. Phys. 2020 152(22), 224108
     doi.org/10.1063/5.0004608
  7. Neese, F.
     Software update: The ORCA program system—Version 5.0
     WIRES Comput. Molec. Sci. 2022 12(1), e1606
     doi.org/10.1002/wcms.1606

List of optional additional citations

  1. Neese, F.
     Approximate second-order SCF convergence for spin unrestricted wavefunctions
     Chem. Phys. Lett. 2000 325(1-3), 93-98
     doi.org/10.1016/s0009-2614(00)00662-x

Timings for individual modules:

Sum of individual times          ...      163.787 sec (=   2.730 min)
Startup calculation              ...       17.977 sec (=   0.300 min)  11.0 %
SCF iterations                   ...       53.735 sec (=   0.896 min)  32.8 %
Property integrals               ...       22.097 sec (=   0.368 min)  13.5 %
SCF Response                     ...        5.860 sec (=   0.098 min)   3.6 %
Property calculations            ...       30.839 sec (=   0.514 min)  18.8 %
SCF Gradient evaluation          ...       33.199 sec (=   0.553 min)  20.3 %
Geometry relaxation              ...        0.081 sec (=   0.001 min)   0.0 %
                             ****ORCA TERMINATED NORMALLY****
TOTAL RUN TIME: 0 days 0 hours 2 minutes 57 seconds 521 msec
